# vtk DataFile Version 2.0
Saved using mVTK
ASCII
DATASET POLYDATA
POINTS 40962 float
100.000000 -0.000000 0.000000
44.720000 27.640000 -85.070000
44.720000 89.440000 -0.000000
44.720000 27.640000 85.070000
44.720000 -72.360000 52.570000
44.720000 -72.360000 -52.570000
-44.720000 -27.640000 -85.070000
-44.720000 72.360000 -52.570000
-44.720000 72.360000 52.570000
-44.720000 -27.640000 85.070000
-44.720000 -89.440000 0.000000
-100.000000 0.000000 -0.000000
85.070000 -42.530000 30.900000
52.570000 -26.290000 80.900000
85.070000 16.250000 50.000000
85.070000 -42.530000 -30.900000
52.570000 -85.070000 0.000000
85.070000 16.250000 -50.000000
52.570000 -26.290000 -80.900000
85.070000 52.570000 -0.000000
52.570000 68.820000 -50.000000
52.570000 68.820000 50.000000
0.000000 58.780000 80.900000
0.000000 95.110000 30.900000
0.000000 0.000000 100.000000
-52.570000 26.290000 80.900000
-0.000000 -58.780000 80.900000
-0.000000 -95.110000 30.900000
-52.570000 -68.820000 50.000000
-0.000000 -95.110000 -30.900000
-0.000000 -58.780000 -80.900000
-52.570000 -68.820000 -50.000000
0.000000 -0.000000 -100.000000
0.000000 58.780000 -80.900000
-52.570000 26.290000 -80.900000
0.000000 95.110000 -30.900000
-52.570000 85.070000 -0.000000
-85.070000 -16.250000 50.000000
-85.070000 42.530000 30.900000
-85.070000 -52.570000 0.000000
-85.070000 -16.250000 -50.000000
-85.070000 42.530000 -30.900000
96.190000 -22.110000 16.060000
89.440000 -13.820000 42.530000
96.190000 8.440000 25.990000
96.190000 -22.110000 -16.060000
89.440000 -44.720000 0.000000
96.190000 8.440000 -25.990000
89.440000 -13.820000 -42.530000
96.190000 27.330000 -0.000000
89.440000 36.180000 -26.290000
89.440000 36.180000 26.290000
23.250000 44.920000 86.270000
27.640000 67.080000 68.820000
50.570000 50.140000 70.200000
23.250000 14.370000 96.190000
0.000000 30.900000 95.110000
50.570000 0.700000 86.270000
27.640000 -13.820000 95.110000
23.250000 -87.050000 43.390000
-0.000000 -80.900000 58.780000
23.250000 -68.160000 69.380000
50.570000 -81.830000 27.330000
27.640000 -94.720000 16.250000
23.250000 -68.160000 -69.380000
-0.000000 -80.900000 -58.780000
23.250000 -87.050000 -43.390000
50.570000 -51.280000 -69.380000
27.640000 -44.720000 -85.070000
23.250000 44.920000 -86.270000
0.000000 30.900000 -95.110000
23.250000 14.370000 -96.190000
50.570000 50.140000 -70.200000
27.640000 67.080000 -68.820000
23.250000 95.930000 16.060000
0.000000 100.000000 -0.000000
23.250000 95.930000 -16.060000
-50.570000 51.280000 69.380000
-72.360000 36.180000 58.780000
-67.460000 59.720000 43.390000
-50.570000 -50.140000 70.200000
-72.360000 -44.720000 52.570000
-67.460000 -22.810000 70.200000
-50.570000 -82.260000 -25.990000
-72.360000 -63.820000 -26.290000
-67.460000 -73.820000 0.000000
-50.570000 -0.700000 -86.270000
-72.360000 5.280000 -68.820000
-67.460000 -22.810000 -70.200000
-50.570000 81.830000 -27.330000
-72.360000 67.080000 -16.250000
-67.460000 59.720000 -43.390000
67.460000 -59.720000 43.390000
50.570000 -51.280000 69.380000
72.360000 -36.180000 58.780000
72.360000 -5.280000 68.820000
67.460000 22.810000 70.200000
67.460000 -59.720000 -43.390000
50.570000 -81.830000 -27.330000
72.360000 -67.080000 -16.250000
72.360000 -67.080000 16.250000
67.460000 22.810000 -70.200000
50.570000 0.700000 -86.270000
72.360000 -5.280000 -68.820000
72.360000 -36.180000 -58.780000
67.460000 73.820000 -0.000000
50.570000 82.260000 -25.990000
72.360000 63.820000 -26.290000
72.360000 44.720000 -52.570000
72.360000 44.720000 52.570000
72.360000 63.820000 26.290000
50.570000 82.260000 25.990000
-23.250000 68.160000 69.380000
-23.250000 87.050000 43.390000
0.000000 80.900000 58.780000
27.640000 86.180000 42.530000
-23.250000 -14.370000 96.190000
-50.570000 -0.700000 86.270000
-27.640000 13.820000 95.110000
-27.640000 44.720000 85.070000
27.640000 -44.720000 85.070000
-0.000000 -30.900000 95.110000
-23.250000 -44.920000 86.270000
-23.250000 -95.930000 16.060000
-50.570000 -82.260000 25.990000
-27.640000 -86.180000 42.530000
-27.640000 -67.080000 68.820000
27.640000 -94.720000 -16.250000
-0.000000 -100.000000 0.000000
-23.250000 -95.930000 -16.060000
-23.250000 -44.920000 -86.270000
-50.570000 -50.140000 -70.200000
-27.640000 -67.080000 -68.820000
-27.640000 -86.180000 -42.530000
27.640000 -13.820000 -95.110000
-0.000000 -30.900000 -95.110000
-23.250000 -14.370000 -96.190000
-23.250000 68.160000 -69.380000
-50.570000 51.280000 -69.380000
-27.640000 44.720000 -85.070000
-27.640000 13.820000 -95.110000
27.640000 86.180000 -42.530000
0.000000 80.900000 -58.780000
-23.250000 87.050000 -43.390000
-50.570000 81.830000 27.330000
-27.640000 94.720000 16.250000
-27.640000 94.720000 -16.250000
-72.360000 5.280000 68.820000
-89.440000 13.820000 42.530000
-96.190000 -8.440000 25.990000
-96.190000 22.110000 16.060000
-72.360000 -63.820000 26.290000
-89.440000 -36.180000 26.290000
-96.190000 -27.330000 0.000000
-72.360000 -44.720000 -52.570000
-89.440000 -36.180000 -26.290000
-96.190000 -8.440000 -25.990000
-72.360000 36.180000 -58.780000
-89.440000 13.820000 -42.530000
-96.190000 22.110000 -16.060000
-72.360000 67.080000 16.250000
-89.440000 44.720000 -0.000000
99.040000 -11.160000 8.110000
97.460000 -6.920000 21.300000
99.040000 4.260000 13.120000
99.040000 -11.160000 -8.110000
97.460000 -22.400000 0.000000
99.040000 4.260000 -13.120000
97.460000 -6.920000 -21.300000
99.040000 13.800000 -0.000000
97.460000 18.120000 -13.170000
97.460000 18.120000 13.170000
34.310000 36.630000 86.490000
37.390000 48.150000 79.260000
48.110000 39.260000 78.380000
34.310000 21.210000 91.500000
23.550000 30.030000 92.430000
48.110000 14.310000 86.490000
37.390000 7.630000 92.430000
34.310000 -80.470000 48.440000
23.550000 -78.630000 57.130000
34.310000 -70.940000 61.560000
48.110000 -77.840000 40.340000
37.390000 -85.550000 35.820000
34.310000 -70.940000 -61.560000
23.550000 -78.630000 -57.130000
34.310000 -80.470000 -48.440000
48.110000 -62.410000 -61.560000
37.390000 -60.510000 -70.290000
34.310000 36.630000 -86.490000
23.550000 30.030000 -92.430000
34.310000 21.210000 -91.500000
48.110000 39.260000 -78.380000
37.390000 48.150000 -79.260000
34.310000 93.580000 8.110000
23.550000 97.190000 -0.000000
34.310000 93.580000 -8.110000
-48.110000 62.410000 61.560000
-59.790000 56.230000 57.130000
-56.630000 66.680000 48.440000
-48.110000 -39.260000 78.380000
-59.790000 -36.950000 71.130000
-56.630000 -25.470000 78.380000
-48.110000 -86.680000 -13.120000
-59.790000 -79.070000 -13.170000
-56.630000 -82.420000 0.000000
-48.110000 -14.310000 -86.490000
-59.790000 -11.910000 -79.260000
-56.630000 -25.470000 -78.380000
-48.110000 77.840000 -40.340000
-59.790000 71.700000 -35.820000
-56.630000 66.680000 -48.440000
77.000000 -51.620000 37.500000
70.630000 -48.450000 51.610000
79.690000 -39.850000 45.400000
88.340000 1.230000 46.840000
81.990000 -9.680000 56.430000
79.690000 5.550000 60.150000
70.630000 8.860000 70.230000
77.000000 19.720000 60.680000
77.000000 -51.620000 -37.500000
70.630000 -64.060000 -30.130000
79.690000 -55.490000 -23.870000
88.340000 -44.170000 15.640000
81.990000 -56.650000 8.230000
79.690000 -55.490000 23.870000
70.630000 -64.060000 30.130000
77.000000 19.720000 -60.680000
70.630000 8.860000 -70.230000
79.690000 5.550000 -60.150000
88.340000 -28.530000 -37.170000
81.990000 -25.340000 -51.340000
79.690000 -39.850000 -45.400000
70.630000 -48.450000 -51.610000
77.000000 63.810000 -0.000000
70.630000 69.530000 -13.280000
79.690000 58.920000 -13.310000
88.340000 26.540000 -38.620000
81.990000 41.000000 -39.960000
79.690000 30.860000 -51.930000
70.630000 34.120000 -62.020000
70.630000 34.120000 62.020000
79.690000 30.860000 51.930000
88.340000 44.930000 13.310000
81.990000 50.670000 26.640000
79.690000 58.920000 13.310000
70.630000 69.530000 13.280000
-11.730000 64.080000 75.870000
-11.740000 75.300000 64.740000
0.000000 70.710000 70.710000
40.610000 68.800000 60.150000
28.010000 77.660000 56.430000
40.610000 78.470000 46.840000
39.510000 85.090000 34.620000
52.070000 76.270000 38.360000
-11.730000 -7.250000 99.040000
-25.710000 -0.280000 96.640000
-13.990000 7.000000 98.770000
0.000000 45.400000 89.100000
-14.010000 38.320000 91.300000
-13.990000 52.390000 84.020000
-25.710000 57.030000 78.020000
52.070000 -39.160000 75.870000
39.510000 -48.490000 78.020000
40.610000 -35.950000 84.020000
13.990000 -7.000000 98.770000
14.010000 -22.660000 96.390000
-0.000000 -15.640000 98.770000
-11.740000 -22.870000 96.640000
-11.730000 -96.440000 23.710000
-25.710000 -91.990000 29.600000
-13.990000 -91.770000 37.170000
-0.000000 -70.710000 70.710000
-14.010000 -74.990000 64.660000
-13.990000 -63.710000 75.790000
-25.710000 -56.580000 78.350000
-11.730000 -52.350000 84.390000
52.070000 -84.250000 -13.800000
39.510000 -89.190000 -22.010000
40.610000 -91.010000 -8.220000
13.990000 -96.100000 23.870000
14.010000 -98.670000 8.230000
-0.000000 -98.770000 15.640000
-11.740000 -98.980000 8.110000
-11.730000 -52.350000 -84.390000
-25.710000 -56.580000 -78.350000
-13.990000 -63.710000 -75.790000
-0.000000 -89.100000 -45.400000
-14.010000 -84.670000 -51.340000
-13.990000 -91.770000 -37.170000
-25.710000 -91.990000 -29.600000
-11.730000 -96.440000 -23.710000
52.070000 -12.920000 -84.390000
39.510000 -6.630000 -91.620000
40.610000 -20.300000 -89.100000
13.990000 -52.390000 -84.020000
14.010000 -38.320000 -91.300000
-0.000000 -45.400000 -89.100000
-11.740000 -38.300000 -91.620000
-11.730000 64.080000 -75.870000
-25.710000 57.030000 -78.020000
-13.990000 52.400000 -84.020000
0.000000 15.640000 -98.770000
-14.010000 22.660000 -96.390000
-13.990000 7.000000 -98.770000
-25.710000 -0.280000 -96.640000
-11.730000 -7.250000 -99.040000
52.070000 76.270000 -38.360000
39.510000 85.090000 -34.620000
40.610000 78.470000 -46.840000
13.990000 63.710000 -75.790000
14.010000 74.990000 -64.660000
0.000000 70.710000 -70.710000
-11.740000 75.300000 -64.740000
-11.730000 91.960000 37.500000
-25.710000 91.820000 30.130000
-13.990000 96.100000 23.870000
0.000000 98.770000 -15.640000
[...]
POINT_DATA 40962
SCALARS thickness float 1
LOOKUP_TABLE default
-0.204805
-0.088805
-0.008969
0.038614
0.009987
-0.117186
0.028083
-0.082213
-0.027481
0.184318
-0.017851
-0.269984
-0.045772
-0.035458
-0.086735
-0.052034
0.014673
0.039238
-0.004618
0.101685
0.123388
-0.191719
-0.087997
0.127661
0.012031
-0.083796
-0.086254
0.057015
0.004715
-0.460752
-0.098134
-0.046497
0.056742
0.021411
0.149514
-0.286124
-0.061540
-0.075606
0.009411
-0.020030
-0.138301
-0.089844
0.009990
-0.158546
0.127726
0.125686
0.075877
0.276532
-0.134555
0.025983
0.010346
0.096204
-0.090122
0.011062
0.042257
-0.034525
-0.074356
-0.003455
-0.130624
0.173098
0.115475
-0.298801
-0.194743
-0.056654
-0.173304
0.028855
-0.071263
0.072459
-0.218765
-0.266969
-0.408883
0.016463
-0.043633
0.052216
-0.161672
0.306893
-0.129155
-0.302512
0.015707
-0.294878
0.152978
-0.055861
-0.167628
0.068550
-0.045403
0.018657
0.092112
0.208240
-0.108481
0.081127
-0.029802
-0.008772
-0.085345
0.090676
0.156452
0.010174
0.080986
0.074454
-0.270097
0.007518
0.006385
-0.064927
0.069338
-0.060598
0.055140
0.008697
0.099872
0.007989
0.084212
-0.062300
0.084508
-0.035165
0.061719
0.004017
-0.224288
-0.047973
-0.367253
-0.103495
-0.074923
-0.368525
-0.359407
-0.173927
0.135105
0.093821
-0.090403
0.133843
-0.185472
0.108528
0.007634
-0.071930
-0.266139
0.088319
0.017870
0.015534
-0.094671
-0.428689
-0.012615
0.133834
0.110648
-0.104536
0.070942
-0.035379
0.094441
0.064004
0.018746
0.013861
-0.140902
-0.017137
0.046016
0.194467
-0.093126
0.074579
0.038187
-0.003093
-0.088738
-0.145169
-0.131389
0.004468
0.093043
0.206968
-0.082604
-0.065641
0.031788
0.011679
-0.094020
-0.339128
0.133395
-0.019201
0.196130
-0.178919
-0.005784
0.071274
-0.147151
-0.089023
-0.109000
-0.026523
0.013241
0.026223
-0.094689
-0.062758
-0.177541
-0.493074
-0.627729
-0.234846
-0.031687
0.094332
0.032483
-0.004446
-0.063504
-0.087261
0.067825
-0.011387
-0.038471
-0.011964
-0.015331
0.028819
0.160007
0.096014
-0.161177
-0.002996
-0.148449
-0.078089
-0.087192
0.149558
-0.086709
0.184349
-0.328333
-0.072064
-0.151292
-0.148502
0.109717
0.303965
-0.198427
-0.041315
0.109612
-0.293785
-0.074694
-0.253843
-0.176723
0.087224
-0.012828
0.148237
-0.008142
0.080806
0.004378
0.183227
0.193874
0.011310
-0.029168
0.202704
-0.121177
-0.140006
-0.001565
0.173067
0.007430
-0.008050
-0.153193
0.063993
-0.005641
-0.031022
-0.061372
0.044850
-0.018329
-0.158572
-0.382888
-0.141584
-0.270162
-0.182444
-0.526739
0.071659
0.016873
0.004525
0.045741
-0.564847
0.074297
-0.299476
0.163686
-0.096314
-0.353886
-0.175211
-0.082187
0.086909
0.047620
-0.218510
0.053684
-0.000489
0.065291
0.023383
-0.139044
0.156222
-0.235343
0.053642
0.007268
0.128124
0.187360
0.040696
0.149669
-0.076972
-0.066158
-0.150975
0.072627
0.126189
0.131394
0.050871
-0.109571
0.020619
-0.066870
-0.093614
0.019772
0.042680
-0.109736
-0.310132
0.044497
-0.096681
-0.083698
-0.094462
-0.225678
-0.099316
-0.070102
0.067549
0.107234
0.117250
-0.184457
-0.202727
0.107651
-0.126233
-0.031185
0.085112
0.191654
0.156030
0.009327
0.040443
-0.078386
-0.672251
-0.137229
-0.001179
0.017630
0.061906
-0.034778
0.181362
0.116653
-0.228788
0.073002
-0.455746
-0.339887
-0.040979
0.068476
0.295177
0.089814
0.056768
-0.023844
-0.012231
-0.432850
0.008703
0.032485
0.103235
-0.462237
0.079117
-0.111345
0.038638
-0.040030
-0.003727
-0.150752
-0.056661
-0.069585
-0.384108
0.042263
-0.076535
-0.148597
0.088246
-0.026234
-0.052120
-0.255942
-0.308317
-0.032119
-0.322919
0.013693
-0.527148
-0.164800
0.042088
-0.102300
0.091671
-0.044159
-0.124827
0.135855
0.071062
-0.091249
-0.309417
-0.203201
-0.033545
0.161292
-0.022891
-0.031680
0.059987
0.076602
0.130365
-0.104659
-0.324911
0.110925
0.061890
0.152755
0.090701
-0.284920
-0.049880
-0.447440
-0.466071
-0.114502
-0.058681
0.072436
0.055883
-0.247745
-0.296968
0.012012
-0.132147
-0.082442
-0.180951
0.136789
0.131183
0.115282
-0.084167
-0.144703
-0.255253
0.140311
0.021529
-0.048031
0.121413
-0.113568
-0.064043
-0.096472
0.157632
0.080555
-0.035355
-0.175151
-0.130936
0.170708
-0.230612
-0.041193
0.026721
-0.050566
-0.163056
-0.005994
-0.055285
-0.306480
0.052696
-0.174612
-0.125538
-0.055634
0.039418
0.105256
-0.177825
-0.001929
0.033047
0.109463
0.011769
0.161371
0.152211
-0.003929
-0.151056
-0.024638
-0.190891
-0.295215
-0.159713
0.073411
-0.430896
-0.251193
-0.218933
-0.098303
0.025798
0.158496
-0.451442
0.124462
-0.156679
-0.147687
0.077641
0.071764
0.099705
0.042033
0.090398
-0.061438
-0.083979
-0.096540
-0.014011
-0.076541
-0.037431
-0.380781
-0.017560
0.035683
0.079671
-0.212516
0.018360
0.046810
-0.557839
0.184500
-0.066169
-0.047527
-0.271139
-0.099292
-0.023557
0.098533
0.065232
-0.029502
0.042854
-0.011050
-0.263493
0.165320
-0.055224
-0.205329
-0.039378
-0.308900
-0.390321
0.138421
-0.295305
0.069384
0.108575
-0.059428
0.160847
0.073316
-0.037043
-0.447867
-0.156678
-0.223583
-0.067243
0.039377
-0.001368
-0.210107
-0.137107
0.165477
-0.056570
0.101076
0.003051
0.201624
0.086444
-0.019750
0.039126
-0.007543
0.127343
0.052056
-0.222332
-0.027524
0.184332
-0.351842
0.159851
0.086137
-0.359305
0.099676
0.051677
-0.518677
0.003561
0.051246
0.007457
0.091732
-0.567824
-0.062607
-0.014206
-0.169668
0.083558
0.013055
-0.030842
0.106479
-0.061215
-0.004270
-0.058980
-0.103821
0.079229
0.063442
0.138397
0.034893
0.035300
-0.073140
-0.081423
0.021158
-0.173678
-0.073548
0.002141
-0.088604
0.050519
-0.039065
-0.088633
0.057511
0.081252
0.002222
0.143279
0.186302
0.017501
-0.045980
0.024193
-0.187143
0.023096
0.116769
0.136196
0.138634
-0.300320
-0.328667
-0.233431
-0.454639
0.038264
-0.288031
-0.004171
0.023283
0.146560
0.024554
-0.121182
-0.072149
0.113584
0.046974
0.082763
-0.110608
-0.204840
0.004163
-0.007767
0.015104
-0.002701
-0.116572
0.008798
-0.003288
-0.221352
-0.128002
0.197229
0.054609
0.011768
0.025214
-0.085881
0.073679
-0.679376
-0.308109
-0.300194
-0.133266
-0.001958
-0.170120
-0.079198
0.014143
-0.163779
0.057667
-0.318998
0.180797
0.159164
-0.011920
-0.036200
0.048855
-0.302739
-0.081097
0.046564
0.093617
0.046380
-0.347347
0.020928
-0.151631
-0.169836
-0.111380
-0.060759
-0.015484
0.125600
-0.191580
0.206963
-0.070285
-0.085348
0.027194
0.305249
0.305771
0.353827
0.023805
0.017785
-0.120110
-0.311561
-0.205472
-0.289190
0.019729
-0.058474
-0.062033
-0.404109
-0.091184
0.093870
0.026765
-0.069241
-0.053291
-0.043501
-0.119946
0.101489
-0.047344
-0.107343
0.006833
-0.249259
-0.180405
-0.164191
-0.203210
0.113819
-0.074852
-0.102457
-0.120229
-0.070283
-0.157996
-0.139975
-0.128499
-0.170608
0.062520
-0.023814
0.036619
-0.014767
-0.205809
-0.002727
-0.089082
-0.163160
0.066099
0.049439
0.161755
0.057831
0.046132
0.062012
0.040447
-0.296484
0.019976
0.065078
-0.092948
0.051699
-0.094163
-0.182906
-0.166580
-0.094606
0.022453
0.041355
-0.007775
0.055480
0.010251
-0.028453
0.165416
-0.008426
-0.008236
0.133184
0.157164
0.156738
-0.038913
-0.052059
-0.070728
-0.033406
-0.136647
-0.195552
-0.160833
-0.210545
-0.359508
0.071503
0.010185
0.167271
-0.050281
0.005536
-0.158134
-0.179110
0.001560
-0.255583
0.104127
0.058514
-0.023759
-0.100869
-0.117563
0.034905
-0.084698
-0.060344
-0.118414
-0.219895
-0.011480
-0.003155
0.087817
0.110990
0.075676
-0.103695
0.096024
-0.003890
0.085736
-0.029159
0.087509
0.053500
-0.259215
-0.094132
0.030703
0.080066
0.100802
0.155823
0.038737
0.039984
-0.461405
-0.315223
0.186111
-0.085502
0.189746
0.184088
0.057086
0.007179
-0.078563
-0.112646
0.004546
-0.220586
-0.001434
-0.454409
-0.008741
0.018521
0.047475
-0.096606
0.042639
0.051558
-0.063418
0.057869
0.067034
0.035766
-0.110448
0.008357
0.130100
0.140489
0.210736
0.086932
0.127996
0.166710
-0.149707
0.003733
-0.115387
0.028549
-0.230700
0.001499
-0.314492
-0.184476
0.330676
0.065339
0.225633
-0.387776
-0.313946
-0.050282
-0.551172
-0.122106
0.095528
0.070563
0.220283
0.041256
0.000455
-0.220535
-0.039615
-0.044199
-0.543992
-0.395678
-0.440366
-0.397197
-0.111328
-0.049001
-0.082870
-0.033068
0.035160
-0.041532
-0.138169
0.043338
0.099835
0.057829
0.100774
-0.401565
0.054010
-0.085096
-0.047203
-0.126821
-0.038880
-0.480804
-0.526267
-0.298453
-0.137616
0.016704
0.132881
0.086848
-0.042943
-0.373731
-0.352857
0.048207
0.225148
0.138718
-0.095683
-0.034855
0.094844
0.057849
0.131638
0.071336
0.181267
0.059777
-0.072855
0.072373
-0.021892
-0.034228
0.100184
0.037257
0.061126
-0.039964
0.085439
0.014018
-0.150796
0.054400
0.071110
0.181019
0.179965
0.148877
0.224997
0.111118
0.135525
0.013309
0.053648
-0.106331
-0.335845
-0.096087
0.034088
-0.018593
-0.023067
-0.237484
0.066965
0.017823
0.100454
0.160016
-0.325100
-0.185685
0.121673
-0.139827
-0.107275
-0.345794
-0.100645
-0.104826
-0.173425
-0.093473
-0.407008
-0.017466
0.138884
0.182380
0.000382
0.164867
0.008685
-0.119381
-0.151828
-0.090023
-0.049159
0.079628
0.059739
-0.277996
-0.434057
-0.110062
-0.012644
0.052741
-0.194585
0.009921
0.099593
0.044770
-0.071480
-0.065187
0.165757
0.064594
0.058405
-0.367319
-0.327698
-0.195561
-0.039059
-0.176961
-0.129434
-0.123779
0.035860
-0.202169
-0.065741
-0.024363
0.002725
-0.187614
-0.197133
-0.109588
-0.054474
0.021961
-0.030529
-0.070905
-0.349215
-0.162352
-0.243970
-0.126508
-0.335088
-0.254992
-0.086120
-0.376641
-0.570262
-0.030267
-1.418540
-0.169357
-0.039263
-0.131777
-0.072159
-0.307860
0.058693
0.131628
0.018400
-0.096174
-0.032933
-0.162434
0.037234
-0.437865
-0.032178
-0.134672
0.059482
0.036057
-0.208727
-0.025218
-0.177101
-0.159674
-0.304740
-0.114556
-0.176330
-0.240409
-0.067306
-0.138572
-0.068162
-0.031492
0.068279
0.246353
-0.140687
0.084956
0.245827
0.009415
-0.173026
-0.226093
-0.101033
-0.161041
-0.239844
0.046233
-0.093079
0.084843
0.178416
0.011069
-0.183813
-0.026828
0.054606
-0.110293
-0.139808
-0.145150
-0.041734
-0.185907
-0.074637
-0.026990
-0.017520
-0.207001
-0.281036
0.029216
-0.072934
-0.010370
-0.002305
-0.020803
0.136080
0.083609
0.100364
0.035769
0.058836
-0.019424
-0.178839
0.035705
0.033505
-0.112990
-0.500752
0.024391
-0.512303
-0.063278
-0.111843
0.061818
0.153774
0.086892
0.083576
0.094522
-0.169709
-0.060348
-0.051031
-0.186200
-0.164689
-0.049522
-0.229541
-0.222874
0.014523
-0.027488
0.033642
0.079213
0.072655
-0.117083
0.007599
0.017380
0.058452
0.149034
0.029552
0.062456
0.015216
-0.043832
-0.139420
-0.136585
0.153960
0.117049
0.128617
-0.472040
-0.115398
-0.155048
-0.327797
-0.140706
-0.218411
-0.341675
0.004406
0.051355
0.149861
-0.052545
-0.140913
-0.021108
-0.071932
0.126272
0.086705
-0.070134
0.116842
0.023800
0.068265
-0.134884
-0.215855
-0.251893
0.098808
0.021471
0.011412
0.055953
-0.247142
0.035447
-0.011489
-0.094087
-0.234042
-0.230816
0.010581
-0.182921
-0.083705
-0.044157
-0.407272
-0.535648
0.060959
-0.506110
0.110107
0.052536
0.135041
-0.283179
-0.195870
-0.012412
-0.032358
-0.200309
-0.063978
0.055327
0.095239
0.184732
0.076559
0.152943
-0.344033
-0.023976
-0.091526
-0.008372
0.087503
-0.432328
-0.687548
-0.075181
-0.000614
0.174290
0.062988
0.053854
-0.122069
0.066258
-0.207522
-0.151701
-0.305104
-0.099234
-0.120513
0.025304
-0.016973
-0.248725
-0.348612
-0.164860
0.085716
-0.198765
-0.121014
0.098236
0.124320
0.118475
-0.356920
-0.150197
-0.324915
-0.071177
-0.083842
-0.038024
0.203058
-0.054038
-0.072322
-0.132044
-0.240157
-0.119071
-0.030890
-0.016205
0.056248
-0.351572
0.132470
-0.038218
-0.027850
0.028339
-0.192909
0.145186
-0.213415
-0.202048
-0.077575
0.045708
0.122483
0.078356
0.024022
-0.081929
-0.105092
-0.404183
-0.841118
-0.159425
-0.000589
0.096274
-0.056678
0.079892
-0.015166
0.000475
-0.124723
0.111545
-0.318748
0.006143
-0.048899
0.001011
0.043295
0.144546
0.041615
0.121530
-0.307336
-0.031082
-0.075876
0.105813
0.186603
0.053803
0.061712
0.009760
0.037456
0.004816
-0.017043
0.009466
0.026863
-0.249336
0.023319
-0.455067
-0.325379
0.103962
0.007760
-0.039464
0.016273
-0.056392
0.087437
0.036771
0.096331
0.105139
0.060231
0.001879
-0.029407
-0.037353
0.020270
0.046233
-0.018783
0.023134
0.026845
-0.109527
0.046305
0.037500
-0.146343
-0.091821
-0.111756
-0.046125
0.094330
0.230319
0.098972
0.009612
-0.020776
-0.051390
-0.251309
-0.127174
-0.033005
0.041690
0.015860
0.019841
-0.309645
-0.248344
-0.079314
0.130813
0.099655
0.190963
0.100610
0.162028
-0.170494
-0.044362
-0.081633
-0.388694
-0.014053
0.114726
-0.066195
-0.491543
-0.150490
-0.137289
0.057414
0.052825
-0.019929
-0.285067
-0.190441
-0.062709
0.000479
0.023247
0.102162
0.031081
-0.213105
0.005628
0.093489
0.115673
0.198643
0.000959
-0.349057
-0.271156
-0.032275
-0.446719
0.052949
0.000111
0.190886
0.189354
0.201407
0.096035
-0.092840
0.146461
-0.031322
-0.144804
-0.087635
0.081471
-0.000097
-0.002200
0.002038
-0.010795
-0.017477
0.013650
0.010299
0.007798
0.129900
-0.228724
-0.047102
-0.414998
-0.079612
-0.002059
0.006964
-0.012279
-0.056231
-0.143493
-0.087938
0.211824
-0.063020
-0.230390
-0.010920
-0.583584
0.112645
-0.308583
0.000872
-0.083851
0.085855
0.176369
0.083732
-0.007008
0.005790
0.040382
0.209903
-0.059657
0.320319
0.240948
-0.003866
0.024995
0.085946
0.059497
-0.136886
-0.152660
-0.045026
-0.150728
0.087766
-0.092454
0.111316
0.032564
0.186477
0.104034
-0.208655
-0.442343
0.023394
-0.493743
-0.582154
-0.075854
-0.352463
0.107920
0.072978
0.065349
-0.079489
-0.176658
-0.203417
0.009197
-0.562945
-0.057195
0.101694
0.129290
0.031591
0.012522
0.045916
-0.066176
0.007985
0.043359
-0.104057
-0.047224
-0.046123
-0.087142
-0.262935
-0.181114
-0.016885
0.103033
0.130220
0.153498
0.041730
0.021804
0.019827
0.138210
0.112718
0.110619
0.061304
0.191818
0.151174
-0.437798
-0.364676
0.048196
0.011181
0.128079
0.205202
-0.012171
0.034466
0.093708
-0.111934
0.040126
-0.090999
0.009239
0.078296
0.113742
0.016564
-0.463456
-0.042948
-0.447697
-0.034375
-0.017257
-0.018954
-0.004106
-0.036380
-0.305798
0.032133
0.151165
-0.022390
-0.070566
0.272427
-0.063052
-0.117272
0.078994
0.136721
0.411132
0.115239
0.079854
-0.021607
-0.020331
-0.005297
0.004910
0.079648
0.226702
0.080718
-0.455936
-0.423722
-0.003986
-0.018941
0.117644
0.097419
0.012415
0.081326
0.117578
0.221558
0.129553
0.113225
-0.020004
-0.490389
-0.253597
-0.051294
0.096441
0.033243
0.103165
-0.013609
0.048185
0.097601
0.049064
-0.066430
0.028518
0.152238
0.039173
-0.255689
-0.073007
-0.124932
-0.094391
0.071633
0.095390
0.035613
-0.209333
-0.191875
-0.505200
-0.363200
-0.112022
-0.061482
0.068221
-0.056861
0.026742
-0.010240
0.123952
0.025246
0.022624
0.045100
0.023470
-0.273388
-0.276988
-0.021744
-0.251533
-0.024303
0.084485
-0.012531
-0.134133
-0.047929
-0.081669
-0.064365
-0.116222
-0.187495
0.132666
0.082286
-0.004724
-0.079513
0.106623
-0.142989
-0.187610
-0.033432
-0.112806
-0.068045
-0.053795
-0.079548
0.089345
0.058602
-0.031788
0.089029
0.041009
-0.120195
-0.152028
-0.067201
-0.038261
-0.225903
-0.205207
0.018010
0.119295
0.260578
0.044136
-0.107412
-0.216683
-0.070871
0.114207
0.163137
-0.313552
0.016694
-0.176478
-0.106735
-0.151636
-0.023541
-0.216328
-0.000443
0.084087
0.132405
0.060934
0.114968
-0.003981
0.001165
0.197929
0.065262
0.130902
0.099890
0.087518
0.077112
0.215251
0.003826
0.000812
-0.046505
0.107488
0.080377
0.017285
-0.131166
-0.094043
-0.041895
-0.042622
0.082024
0.112511
0.087182
0.122257
0.040249
-0.156853
-0.260807
0.012622
0.119386
0.242320
0.189893
0.119327
-0.377147
-0.398267
-0.449190
-0.132471
-0.016743
0.199221
0.192221
0.087597
-0.096716
-0.038132
0.007241
-0.282340
-0.078422
0.075105
-0.203879
-0.155148
0.057517
0.031993
-0.103239
0.120320
0.017906
-0.048466
0.046520
-0.179223
0.004579
-0.023809
-0.035142
-0.193368
0.092454
0.101525
-0.062817
-0.413150
0.153909
0.021485
-0.311268
-0.127370
-0.141183
-0.109232
-0.484104
-0.115458
0.024171
0.026425
0.030086
0.065030
0.055917
-0.028899
-0.071361
-0.144231
-0.061599
0.002630
0.132844
-0.077684
-0.023512
-0.270427
-0.142199
-0.254877
0.014826
0.176215
0.137133
-0.017752
-0.405379
0.096244
0.164516
0.200628
0.190671
0.211418
0.104103
0.042077
0.112111
0.169810
0.201430
-0.232520
-0.193105
-0.234944
-0.057194
-0.028745
-0.036886
-0.188783
-0.349697
0.183204
0.070338
0.012464
0.056273
0.121523
0.062640
0.036199
0.013930
0.068313
-0.010372
-0.029752
0.071992
0.069153
-0.034994
0.067406
0.094133
0.025850
-0.113364
-0.121058
0.072604
-0.010555
-0.007638
-0.055716
-0.071986
-0.126766
-0.278874
-0.060296
-0.054657
-0.094123
-0.059698
-0.085631
-0.020289
0.129044
0.108765
0.074118
0.161586
-0.016520
-0.138319
0.077523
0.140447
-0.007071
-0.274924
-0.133060
-0.158775
-0.221108
-0.233108
-0.152980
-0.054632
0.106149
0.211159
0.026410
-0.071451
0.030324
-0.329304
-0.295378
-0.114205
0.003136
-0.169805
0.019016
0.041283
0.000772
0.016564
0.004876
-0.005268
0.265838
0.071567
0.174751
0.054014
-0.067485
-0.108991
0.136425
0.221076
-0.456728
0.106288
-0.142513
0.131339
-0.472536
0.101082
0.089820
0.021811
0.017006
0.111039
0.126032
0.080671
0.012400
0.001327
0.050155
-0.478067
-0.044715
-0.236672
0.010352
-0.013368
-0.022553
-0.617779
-0.824460
-0.104427
0.045839
-0.143530
0.004667
-0.380858
0.202247
-0.004458
-0.041915
-0.042957
0.004213
-0.090085
0.039070
0.034390
-0.085493
-0.050055
-0.409132
-0.096167
-0.327743
-0.218732
-0.132262
0.173976
0.156447
0.102420
-0.042630
-0.334183
-0.164996
-0.129076
0.010325
0.069452
0.037408
0.047242
-0.171819
0.017319
-0.390714
-0.022598
0.212485
-0.136742
0.126447
-0.019450
0.120367
-0.142836
-0.153630
-0.279601
-0.290497
-0.330064
0.008185
-0.005718
0.147452
0.022448
-0.496195
-0.402468
-0.263283
-0.154754
0.179703
0.064477
-0.108172
-0.099830
-0.102363
-0.091115
-0.125577
-0.086306
-0.250022
-0.198080
-0.088261
0.218207
0.173872
0.250680
0.020438
-0.046971
-0.190413
-0.081105
-0.191796
-0.169264
-0.197709
0.084859
0.087995
-0.393959
-0.188783
-0.153793
0.082788
0.097807
0.063182
-0.304431
0.010414
-0.051410
0.049171
0.030599
0.238806
0.022204
0.011653
-0.093502
0.119743
0.005764
0.179557
0.038706
-0.097580
0.056101
-0.047020
0.002007
-0.123972
-0.061775
-0.034635
0.051706
-0.107943
-0.548288
-0.038239
-0.149408
-0.374115
-0.434399
-0.303013
-0.135321
0.032829
0.088136
0.073409
0.036393
-0.034764
-0.068465
-0.021845
-0.396881
-0.046488
0.057532
-0.128304
-0.045807
-0.069397
-0.088681
-0.006420
-0.099586
-0.025549
-0.235058
0.143145
0.182637
0.081421
0.136790
0.100596
-0.359612
-0.030980
0.171675
0.052944
-0.037064
-0.048324
-0.041587
-0.099701
-0.229333
-0.019867
0.080445
-0.038394
0.152855
0.110251
0.128647
0.082342
-0.105656
0.013494
0.044502
0.077437
0.029392
-0.021048
-0.173445
-0.056412
-0.140812
-0.232486
-0.235698
0.130068
0.098437
0.094315
-0.113558
0.010968
0.001084
-0.141609
-0.311326
-0.055445
-0.170076
0.062688
0.056657
-0.093566
0.030808
-0.041035
-0.058261
-0.518829
-0.312132
-0.028724
0.038878
0.011562
0.017834
0.065715
-0.058764
-0.241330
0.113321
-0.109942
-0.087228
0.002417
-0.033594
-0.078503
0.269726
0.045405
0.373546
0.367488
0.087179
-0.339922
-0.142213
-0.059652
-0.086706
-0.146080
0.030506
0.265327
0.162283
0.237420
-0.168009
-0.006167
-0.126551
-0.013136
0.048033
0.016541
0.052430
-0.020095
0.050061
0.013895
0.026454
0.003814
0.048429
0.006000
0.174710
0.005735
0.019504
0.091410
0.063807
-0.219849
0.004823
-0.227202
-0.214845
-0.123959
0.025759
-0.374802
-0.004822
-0.072252
-0.133710
-0.096618
0.129833
0.032288
0.107396
-0.407729
0.044720
-0.190592
0.006624
-0.015497
-0.077526
-0.059897
-0.145079
-0.268289
-0.038059
-0.067675
0.060957
-0.103981
-0.037510
0.028400
0.163565
0.018587
-0.319114
0.073029
0.006751
-0.286966
-0.159625
0.050086
0.118104
-0.086828
0.036947
0.114978
0.153523
0.124270
0.001756
0.044805
0.089223
0.132917
0.034427
0.086622
0.046235
0.020864
0.026175
-0.054216
-0.136106
-0.133098
0.011508
-0.051068
0.022739
0.087265
-0.025735
0.114884
0.058731
-0.074431
-0.200501
0.011662
0.032776
-0.068464
0.009521
-0.070312
-0.031178
-0.102653
0.038019
0.025981
-0.053238
-0.093108
-0.047150
0.016432
-0.358566
-0.002656
-0.013165
0.041111
0.004738
-0.012377
-0.060528
-0.128827
0.128374
0.001627
-0.462845
0.081999
-0.098733
-0.142467
-0.078058
-0.145583
-0.136407
-0.038651
-0.165864
-0.237896
-0.036883
-0.087488
-0.004919
0.018801
-0.003900
0.161839
-0.050338
-0.069163
0.048660
0.008076
-0.175361
0.022636
0.088644