# vtk DataFile Version 2.0
Saved using mVTK
ASCII
DATASET POLYDATA
POINTS 2562 float
0.000000 0.000000 100.000000
27.640000 -85.070000 44.720000
89.440000 0.000000 44.720000
27.640000 85.070000 44.720000
-72.360000 52.570000 44.720000
-72.360000 -52.570000 44.720000
-27.640000 -85.070000 -44.720000
72.360000 -52.570000 -44.720000
72.360000 52.570000 -44.720000
-27.640000 85.070000 -44.720000
-89.440000 0.000000 -44.720000
0.000000 0.000000 -100.000000
-42.530000 30.900000 85.070000
-26.290000 80.900000 52.570000
16.250000 50.000000 85.070000
-42.530000 -30.900000 85.070000
-85.070000 0.000000 52.570000
16.250000 -50.000000 85.070000
-26.290000 -80.900000 52.570000
52.570000 0.000000 85.070000
68.820000 -50.000000 52.570000
68.820000 50.000000 52.570000
58.780000 80.900000 0.000000
95.110000 30.900000 0.000000
0.000000 100.000000 0.000000
26.290000 80.900000 -52.570000
-58.780000 80.900000 0.000000
-95.110000 30.900000 0.000000
-68.820000 50.000000 -52.570000
-95.110000 -30.900000 0.000000
-58.780000 -80.900000 0.000000
-68.820000 -50.000000 -52.570000
0.000000 -100.000000 0.000000
58.780000 -80.900000 0.000000
26.290000 -80.900000 -52.570000
95.110000 -30.900000 0.000000
85.070000 0.000000 -52.570000
-16.250000 50.000000 -85.070000
42.530000 30.900000 -85.070000
-52.570000 0.000000 -85.070000
-16.250000 -50.000000 -85.070000
42.530000 -30.900000 -85.070000
-22.110000 16.060000 96.190000
-13.820000 42.530000 89.440000
8.440000 25.990000 96.190000
-22.110000 -16.060000 96.190000
-44.720000 0.000000 89.440000
8.440000 -25.990000 96.190000
-13.820000 -42.530000 89.440000
27.330000 0.000000 96.190000
36.180000 -26.290000 89.440000
36.180000 26.290000 89.440000
44.920000 86.270000 23.250000
67.080000 68.820000 27.640000
50.140000 70.200000 50.570000
14.370000 96.190000 23.250000
30.900000 95.110000 0.000000
0.700000 86.270000 50.570000
-13.820000 95.110000 27.640000
-87.050000 43.390000 23.250000
-80.900000 58.780000 0.000000
-68.160000 69.380000 23.250000
-81.830000 27.330000 50.570000
-94.720000 16.250000 27.640000
-68.160000 -69.380000 23.250000
-80.900000 -58.780000 0.000000
-87.050000 -43.390000 23.250000
-51.280000 -69.380000 50.570000
-44.720000 -85.070000 27.640000
44.920000 -86.270000 23.250000
30.900000 -95.110000 0.000000
14.370000 -96.190000 23.250000
50.140000 -70.200000 50.570000
67.080000 -68.820000 27.640000
95.930000 16.060000 23.250000
100.000000 0.000000 0.000000
95.930000 -16.060000 23.250000
51.280000 69.380000 -50.570000
36.180000 58.780000 -72.360000
59.720000 43.390000 -67.460000
-50.140000 70.200000 -50.570000
-44.720000 52.570000 -72.360000
-22.810000 70.200000 -67.460000
-82.260000 -25.990000 -50.570000
-63.820000 -26.290000 -72.360000
-73.820000 0.000000 -67.460000
-0.700000 -86.270000 -50.570000
5.280000 -68.820000 -72.360000
-22.810000 -70.200000 -67.460000
81.830000 -27.330000 -50.570000
67.080000 -16.250000 -72.360000
59.720000 -43.390000 -67.460000
-59.720000 43.390000 67.460000
-51.280000 69.380000 50.570000
-36.180000 58.780000 72.360000
-5.280000 68.820000 72.360000
22.810000 70.200000 67.460000
-59.720000 -43.390000 67.460000
-81.830000 -27.330000 50.570000
-67.080000 -16.250000 72.360000
-67.080000 16.250000 72.360000
22.810000 -70.200000 67.460000
0.700000 -86.270000 50.570000
-5.280000 -68.820000 72.360000
-36.180000 -58.780000 72.360000
73.820000 0.000000 67.460000
82.260000 -25.990000 50.570000
63.820000 -26.290000 72.360000
44.720000 -52.570000 72.360000
44.720000 52.570000 72.360000
63.820000 26.290000 72.360000
82.260000 25.990000 50.570000
68.160000 69.380000 -23.250000
87.050000 43.390000 -23.250000
80.900000 58.780000 0.000000
86.180000 42.530000 27.640000
-14.370000 96.190000 -23.250000
-0.700000 86.270000 -50.570000
13.820000 95.110000 -27.640000
44.720000 85.070000 -27.640000
-44.720000 85.070000 27.640000
-30.900000 95.110000 0.000000
-44.920000 86.270000 -23.250000
-95.930000 16.060000 -23.250000
-82.260000 25.990000 -50.570000
-86.180000 42.530000 -27.640000
-67.080000 68.820000 -27.640000
-94.720000 -16.250000 27.640000
-100.000000 0.000000 0.000000
-95.930000 -16.060000 -23.250000
-44.920000 -86.270000 -23.250000
-50.140000 -70.200000 -50.570000
-67.080000 -68.820000 -27.640000
-86.180000 -42.530000 -27.640000
-13.820000 -95.110000 27.640000
-30.900000 -95.110000 0.000000
-14.370000 -96.190000 -23.250000
68.160000 -69.380000 -23.250000
51.280000 -69.380000 -50.570000
44.720000 -85.070000 -27.640000
13.820000 -95.110000 -27.640000
86.180000 -42.530000 27.640000
80.900000 -58.780000 0.000000
87.050000 -43.390000 -23.250000
81.830000 27.330000 -50.570000
94.720000 16.250000 -27.640000
94.720000 -16.250000 -27.640000
5.280000 68.820000 -72.360000
13.820000 42.530000 -89.440000
-8.440000 25.990000 -96.190000
22.110000 16.060000 -96.190000
-63.820000 26.290000 -72.360000
-36.180000 26.290000 -89.440000
-27.330000 0.000000 -96.190000
-44.720000 -52.570000 -72.360000
-36.180000 -26.290000 -89.440000
-8.440000 -25.990000 -96.190000
36.180000 -58.780000 -72.360000
13.820000 -42.530000 -89.440000
22.110000 -16.060000 -96.190000
67.080000 16.250000 -72.360000
44.720000 0.000000 -89.440000
-11.160000 8.110000 99.040000
-6.920000 21.300000 97.460000
4.260000 13.120000 99.040000
-11.160000 -8.110000 99.040000
-22.400000 0.000000 97.460000
4.260000 -13.120000 99.040000
-6.920000 -21.300000 97.460000
13.800000 0.000000 99.040000
18.120000 -13.170000 97.460000
18.120000 13.170000 97.460000
36.630000 86.490000 34.310000
48.150000 79.260000 37.390000
39.260000 78.380000 48.110000
21.210000 91.500000 34.310000
30.030000 92.430000 23.550000
14.310000 86.490000 48.110000
7.630000 92.430000 37.390000
-80.470000 48.440000 34.310000
-78.630000 57.130000 23.550000
-70.940000 61.560000 34.310000
-77.840000 40.340000 48.110000
-85.550000 35.820000 37.390000
-70.940000 -61.560000 34.310000
-78.630000 -57.130000 23.550000
-80.470000 -48.440000 34.310000
-62.410000 -61.560000 48.110000
-60.510000 -70.290000 37.390000
36.630000 -86.490000 34.310000
30.030000 -92.430000 23.550000
21.210000 -91.500000 34.310000
39.260000 -78.380000 48.110000
48.150000 -79.260000 37.390000
93.580000 8.110000 34.310000
97.190000 0.000000 23.550000
93.580000 -8.110000 34.310000
62.410000 61.560000 -48.110000
56.230000 57.130000 -59.790000
66.680000 48.440000 -56.630000
-39.260000 78.380000 -48.110000
-36.950000 71.130000 -59.790000
-25.470000 78.380000 -56.630000
-86.680000 -13.120000 -48.110000
-79.070000 -13.170000 -59.790000
-82.420000 0.000000 -56.630000
-14.310000 -86.490000 -48.110000
-11.910000 -79.260000 -59.790000
-25.470000 -78.380000 -56.630000
77.840000 -40.340000 -48.110000
71.700000 -35.820000 -59.790000
66.680000 -48.440000 -56.630000
-51.620000 37.500000 77.000000
-48.450000 51.610000 70.630000
-39.850000 45.400000 79.690000
1.230000 46.840000 88.340000
-9.680000 56.430000 81.990000
5.550000 60.150000 79.690000
8.860000 70.230000 70.630000
19.720000 60.680000 77.000000
-51.620000 -37.500000 77.000000
-64.060000 -30.130000 70.630000
-55.490000 -23.870000 79.690000
-44.170000 15.640000 88.340000
-56.650000 8.230000 81.990000
-55.490000 23.870000 79.690000
-64.060000 30.130000 70.630000
19.720000 -60.680000 77.000000
8.860000 -70.230000 70.630000
5.550000 -60.150000 79.690000
-28.530000 -37.170000 88.340000
-25.340000 -51.340000 81.990000
-39.850000 -45.400000 79.690000
-48.450000 -51.610000 70.630000
63.810000 0.000000 77.000000
69.530000 -13.280000 70.630000
58.920000 -13.310000 79.690000
26.540000 -38.620000 88.340000
41.000000 -39.960000 81.990000
30.860000 -51.930000 79.690000
34.120000 -62.020000 70.630000
34.120000 62.020000 70.630000
30.860000 51.930000 79.690000
44.930000 13.310000 88.340000
50.670000 26.640000 81.990000
58.920000 13.310000 79.690000
69.530000 13.280000 70.630000
64.080000 75.870000 -11.730000
75.300000 64.740000 -11.740000
70.710000 70.710000 0.000000
68.800000 60.150000 40.610000
77.660000 56.430000 28.010000
78.470000 46.840000 40.610000
85.090000 34.620000 39.510000
76.270000 38.360000 52.070000
-7.250000 99.040000 -11.730000
-0.280000 96.640000 -25.710000
7.000000 98.770000 -13.990000
45.400000 89.100000 0.000000
38.320000 91.300000 -14.010000
52.390000 84.020000 -13.990000
57.030000 78.020000 -25.710000
-39.160000 75.870000 52.070000
-48.490000 78.020000 39.510000
-35.950000 84.020000 40.610000
-7.000000 98.770000 13.990000
-22.660000 96.390000 14.010000
-15.640000 98.770000 0.000000
-22.870000 96.640000 -11.740000
-96.440000 23.710000 -11.730000
-91.990000 29.600000 -25.710000
-91.770000 37.170000 -13.990000
-70.710000 70.710000 0.000000
-74.990000 64.660000 -14.010000
-63.710000 75.790000 -13.990000
-56.580000 78.350000 -25.710000
-52.350000 84.390000 -11.730000
-84.250000 -13.800000 52.070000
-89.190000 -22.010000 39.510000
-91.010000 -8.220000 40.610000
-96.100000 23.870000 13.990000
-98.670000 8.230000 14.010000
-98.770000 15.640000 0.000000
-98.980000 8.110000 -11.740000
-52.350000 -84.390000 -11.730000
-56.580000 -78.350000 -25.710000
-63.710000 -75.790000 -13.990000
-89.100000 -45.400000 0.000000
-84.670000 -51.340000 -14.010000
-91.770000 -37.170000 -13.990000
-91.990000 -29.600000 -25.710000
-96.440000 -23.710000 -11.730000
-12.920000 -84.390000 52.070000
-6.630000 -91.620000 39.510000
-20.300000 -89.100000 40.610000
-52.390000 -84.020000 13.990000
-38.320000 -91.300000 14.010000
-45.400000 -89.100000 0.000000
-38.300000 -91.620000 -11.740000
64.080000 -75.870000 -11.730000
57.030000 -78.020000 -25.710000
52.400000 -84.020000 -13.990000
15.640000 -98.770000 0.000000
22.660000 -96.390000 -14.010000
7.000000 -98.770000 -13.990000
-0.280000 -96.640000 -25.710000
-7.250000 -99.040000 -11.730000
76.270000 -38.360000 52.070000
85.090000 -34.620000 39.510000
78.470000 -46.840000 40.610000
63.710000 -75.790000 13.990000
74.990000 -64.660000 14.010000
70.710000 -70.710000 0.000000
75.300000 -64.740000 -11.740000
91.960000 37.500000 -11.730000
91.820000 30.130000 -25.710000
96.100000 23.870000 -13.990000
98.770000 -15.640000 0.000000
98.670000 -8.230000 -14.010000
[...]
POINT_DATA 2562
SCALARS curv float 1
LOOKUP_TABLE default
0.220844
0.292427
0.271743
0.188563
-0.502084
0.165685
-0.370401
0.324659
0.002497
0.050272
-0.188513
-0.932905
0.112559
-0.074215
0.130783
-0.151676
-0.195945
0.329353
0.148557
-0.128213
-0.069957
-0.158984
-0.364564
-0.005294
0.119140
0.063713
-0.427040
0.285156
0.028498
-0.262507
-0.238485
-0.246257
-0.006175
-0.059048
-0.298133
-0.038086
0.088718
-0.079426
0.004829
0.063294
0.203849
0.106342
0.179179
-0.131623
-0.250586
-0.137654
0.062829
-0.367278
0.118818
0.237406
-0.516729
0.076803
-0.167761
-0.220661
-0.017671
0.320195
-0.773656
0.145854
0.197240
0.122563
0.079934
0.269421
-0.877862
-0.369374
0.043704
0.126428
0.388946
0.146996
0.234106
-0.486472
-0.108233
-0.047936
0.186707
0.212412
-0.000584
-0.002115
-0.137380
-0.094369
-0.481277
0.005535
0.016485
0.049995
0.061564
0.190443
-0.014130
0.012358
-0.396429
-0.020506
-0.448582
-0.113070
0.057697
-0.517077
-0.026732
-0.273407
-0.446224
0.069357
0.224969
0.146894
-0.010118
0.045792
-0.053971
-0.167329
0.217969
0.091468
0.188706
-0.239121
0.048941
0.061127
0.026669
-0.450869
-0.048253
-0.007201
0.366806
-0.000902
-0.025252
0.279801
0.202623
0.054357
-0.237334
-0.522315
0.167953
-0.586620
0.138094
0.131340
-0.351489
0.020226
0.217280
-0.014460
0.172471
-0.274297
-0.312773
-0.187138
0.131717
0.246343
0.179316
-0.661973
-0.515915
-0.204762
0.166128
-0.131588
-0.222619
0.033197
0.120640
0.105320
0.017780
0.027101
0.205532
-0.172513
0.104380
-0.191367
0.055219
-0.068261
-0.130852
0.233135
0.118182
-0.075431
-0.149036
0.190573
-0.116673
0.177560
-0.163107
-0.421798
0.151363
0.013614
-0.421263
0.137785
-0.019513
0.094219
-0.267170
0.244948
-0.037199
0.040349
0.226319
-0.261668
0.050599
-0.213486
-0.063808
-0.257269
0.226481
-0.050053
0.391712
0.019010
0.161060
-0.308320
-0.065677
0.026093
-0.046556
-0.091382
-0.472462
0.237403
-0.516792
-0.077191
-0.195598
-0.580973
0.354415
-0.280414
0.033203
-0.211895
0.033786
0.121065
0.241893
0.039190
0.042949
0.051520
0.009802
-0.239530
-0.243584
0.025529
-0.498031
0.127023
0.133620
0.038302
0.193863
0.012170
0.019388
0.018680
0.321914
-0.304644
-0.360660
0.179687
0.286754
0.433994
0.016996
0.023375
0.093382
0.063938
0.020232
-0.112001
0.073074
-0.229426
-0.293825
-0.052894
-0.024389
0.042307
-0.072804
0.007201
0.045808
-0.100323
-0.299136
0.068089
0.098861
0.318030
0.007821
-0.371764
-0.313706
0.108491
0.059692
-0.161899
-0.259057
0.122712
0.037892
-0.318831
-0.313464
0.315821
0.230828
0.276680
-0.328870
-0.160325
0.162657
-0.181338
0.525493
0.142667
0.258243
0.211857
0.092644
-0.050783
-0.448049
-0.228860
0.221345
0.140507
0.129788
0.026702
-0.014569
0.048993
-0.132504
0.118270
0.346113
0.174293
-0.556690
-0.516032
-0.095415
0.059803
0.189700
0.134704
0.127576
0.214851
-0.042856
-0.242507
0.046352
0.086617
-0.263007
-0.177537
-0.108047
0.291394
-0.134239
0.308525
0.056273
-0.019264
-0.202074
-0.024636
0.066410
-0.046180
0.421358
0.190179
-0.527922
0.220211
0.239851
0.212991
-0.312777
-0.077665
-0.008186
0.045319
0.077352
0.405015
-0.056374
0.000111
-0.003577
-0.118386
0.292126
-0.131687
-0.181293
-0.363595
0.144703
0.167587
0.406705
-0.062977
0.096555
0.097312
-0.018149
0.203944
0.199358
-0.126870
0.282101
-0.036125
0.176827
0.194007
0.166986
-0.104357
0.061380
0.162513
-0.246542
-0.195647
-0.128763
-0.423800
0.309438
-0.169965
-0.207787
-0.036813
0.160731
0.058411
-0.427977
-0.073235
-0.076147
0.033693
0.055236
-0.109961
-0.167700
-0.003362
-0.286768
-0.003123
-0.175304
0.051604
0.176801
-0.017921
0.081382
-0.573020
0.094585
-0.286343
0.115292
-0.258912
-0.043718
0.196097
0.275463
-0.009648
0.214867
0.080953
-0.040237
0.005447
-0.617440
0.179177
0.270929
0.006410
-0.282042
0.169498
-0.142796
-0.040037
0.181001
-0.527055
0.062814
0.241811
-0.384658
-0.181234
0.132082
0.099531
0.242668
0.246111
0.149615
-0.108814
-0.309669
0.159782
-0.110633
0.178304
0.309824
-0.334780
-0.056949
0.151361
0.034548
-0.098828
0.072696
0.240619
0.022531
0.231853
-0.330300
0.158151
-0.056853
0.160306
-0.326421
-0.737546
0.147945
0.023725
-0.002354
-0.337744
-0.036443
-0.044520
0.085911
-0.055813
0.132829
-0.125356
-0.239398
0.302909
0.125526
0.020767
0.093120
0.199804
-0.054030
0.022035
-0.032867
0.301578
-0.242107
0.277869
0.282596
0.038117
0.154726
0.082635
0.304233
-0.602427
-0.027676
0.194335
0.214196
0.082589
-0.297436
0.175102
0.087966
0.082010
-0.406202
0.139405
-0.280563
0.312059
-0.194582
0.180446
-0.352300
0.142144
0.225193
0.061767
0.202554
-0.345727
0.193564
0.021415
-0.100119
-0.082046
0.084934
-0.367652
0.139509
0.008437
-0.131284
-0.221214
-0.090722
0.098866
-0.165594
-0.122087
0.216640
-0.207686
0.270887
-0.046946
0.051263
0.126398
0.212308
0.120639
0.343320
0.063058
-0.087414
-0.148281
-0.079250
0.038261
-0.225633
-0.203057
-0.175031
0.109690
-0.465947
-0.406524
0.201672
-0.009284
0.042338
-0.031840
0.080365
-0.495934
-0.060540
-0.106752
-0.181013
-0.205597
-0.032967
0.161780
-0.011258
0.020472
0.108470
0.085715
-0.034858
-0.609363
0.322669
-0.453302
-0.297093
-0.090265
0.158150
-0.300356
0.145719
0.166178
0.218558
-0.316805
-0.291208
0.096780
-0.186123
-0.212313
0.132905
0.242143
0.173275
-0.002699
-0.159381
0.128234
0.008039
0.314536
-0.082614
-0.236460
-0.491373
-0.067499
-0.070270
0.177221
0.036688
-0.003151
0.043043
0.030277
-0.333051
0.179769
-0.022087
-0.456867
-0.191008
0.046795
-0.120994
-0.028175
0.018849
0.049281
0.190338
0.218861
-0.575136
0.264190
0.252239
-0.056986
-0.034311
0.007431
-0.181243
0.420143
0.177906
-0.208694
0.221892
0.181365
0.094277
0.079988
-0.379854
-0.201259
0.462111
-0.262934
0.221198
0.335090
-0.023049
-0.083134
-0.343341
-0.073907
-0.054684
0.514745
-0.002684
0.001583
0.040578
-0.055344
-0.009691
-0.040714
-0.158622
-0.081435
-0.112613
-0.029933
-0.262889
0.246970
0.301390
-0.442959
0.037637
0.119442
-0.092574
-0.175958
0.013637
-0.006775
-0.308019
-0.178957
0.110112
0.090151
0.135303
-0.026608
0.007135
0.322777
-0.032388
0.302517
-0.570532
0.198242
0.165661
-0.364701
0.076261
-0.757930
-0.012726
-0.310039
-0.285222
-0.225817
0.390279
0.264723
-0.007271
-0.065366
0.042321
0.063762
-0.174195
-0.087446
0.042460
-0.031749
0.022586
0.216933
-0.454492
0.113482
0.298457
-0.074657
-0.172483
0.172875
0.210480
0.062367
0.137661
0.167658
0.000422
0.094282
0.365083
0.095663
0.175117
-0.166266
-0.016763
-0.212436
-0.403316
-0.147702
0.160452
-0.101814
-0.148612
-0.271430
-0.239654
-0.466791
-0.329476
0.050165
-0.299264
-0.198435
0.188796
-0.288003
0.050687
0.103825
0.245069
-0.002140
0.186437
0.061849
-0.148644
0.198086
0.141824
0.276948
0.243509
-0.313955
0.122789
-0.407959
0.250413
0.181768
-0.230075
0.015519
0.197915
0.446423
0.249973
0.099479
-0.057139
0.107373
0.340995
0.279647
0.014186
0.347533
-0.061094
0.153678
0.229811
0.242760
0.137016
0.170526
0.143139
0.062111
-0.505975
-0.223944
0.086055
-0.046890
0.273942
0.273794
0.067427
0.158389
-0.215967
-0.022676
-0.010153
0.166169
0.162749
0.005257
0.046104
-0.272099
-0.095864
-0.125218
-0.127157
0.214952
0.228001
0.017562
0.398811
0.072208
-0.345196
-0.166558
0.082644
-0.051216
-0.304982
0.280829
0.025857
-0.558213
-0.347662
0.053715
-0.000393
-0.146040
-0.141847
-0.197552
-0.069403
-0.306493
-0.022027
0.104773
0.253477
-0.420469
0.288160
-0.366720
-0.339611
-0.131714
0.105277
-0.089340
0.193386
-0.271918
-0.003842
-0.187588
-0.573329
0.189754
0.068191
0.160093
0.080977
0.082497
0.007474
-0.186658
-0.515853
-0.336444
-0.311444
-0.197874
-0.119981
0.022223
-0.040226
-0.293364
0.135930
-0.133280
-0.149387
-0.250928
-0.099902
0.303164
-0.512424
-0.165183
0.130877
-0.495619
-0.451233
-0.091804
0.105197
-0.174165
0.281391
0.431256
-0.006808
0.015219
-0.010007
-0.446618
0.154258
-0.394794
-0.007848
0.048592
-0.178799
-0.253046
0.155484
0.021521
0.043791
0.045721
0.047101
0.017314
0.038747
0.296366
0.062595
-0.069245
-0.044768
-0.132662
0.077396
-0.139626
-0.016139
-0.323887
0.097539
0.179177
-0.151131
-0.039914
-0.479297
0.106418
-0.071712
-0.285908
-0.163949
-0.019279
0.283087
-0.357205
0.148591
0.316046
-0.040613
0.088290
-0.294918
0.366514
-0.004373
0.216653
0.343220
0.073370
0.255454
0.057300
0.089742
0.057864
0.058903
-0.379093
-0.058068
-0.255377
-0.273447
-0.180639
-0.214433
-0.044833
-0.180452
0.063644
0.173748
0.022396
-0.051498
-0.069813
-0.224774
-0.181074
-0.089219
0.163430
0.147576
0.240035
0.061701
-0.077631
-0.126376
-0.898484
0.270049
-0.365501
-0.160767
0.049374
-0.003020
0.098424
0.091513
-0.428824
0.093584
-0.284461
-0.192945
-0.419268
-0.239497
-0.275726
-0.288484
0.076297
-0.203456
0.383897
-0.445425
0.099423
-0.083407
0.103552
0.085081
0.153167
0.327220
-0.171061
-0.149352
0.352848
0.150920
0.306071
0.191206
-0.010984
-0.131508
0.010667
0.029626
-0.192457
-0.703930
-0.220832
-0.050161
0.045529
0.081064
-0.731509
0.081253
-0.152865
-0.005745
0.055653
0.074903
-0.462211
-0.048174
-0.150406
0.090213
0.231378
0.165755
0.152916
-0.054683
-0.119035
-1.009770
-0.099415
-0.438692
0.019338
-0.088682
0.165497
-0.005939
-0.299657
0.006678
-0.352774
0.264758
0.341762
0.077913
0.042978
0.042959
-0.409056
0.128016
-0.443164
-0.010595
-0.139820
-0.053046
-0.289582
-0.115547
-0.078365
0.263963
0.027124
0.331622
-0.081227
0.185279
-0.005541
0.119808
-0.033975
-0.031615
0.040219
-0.000873
0.028773
0.054046
0.266153
-0.201788
0.046630
-0.190928
-0.403958
-0.116668
-0.266534
0.286639
0.051123
0.182369
0.013657
0.305109
0.098112
0.409580
-0.343159
-0.113944
0.192662
0.313119
-0.532516
-0.126770
-0.302871
0.042073
0.387691
-0.228075
-0.081391
0.055465
-0.461863
0.028146
-0.303544
-0.002640
0.029839
0.008577
-0.248503
-0.075822
0.038122
0.206758
0.145876
-0.264666
-0.410621
0.026965
0.036416
-0.017081
0.260105
0.001969
0.085821
0.049639
-0.238811
-0.034178
0.118458
0.183966
0.264865
0.212774
0.182797
0.093171
-0.061160
0.140967
0.140265
0.155737
0.204032
-0.116929
-0.590869
-0.120925
-0.450438
0.174728
-0.437338
-0.568483
0.033896
-0.494810
-0.013421
-0.167733
0.223553
0.083724
0.197512
0.198426
-0.115084
-0.505461
0.040979
0.092954
0.280526
0.178820
0.043296
0.096794
0.146282
0.143836
0.153694
0.036902
0.168757
0.084952
0.226764
0.283169
0.127745
0.281597
0.327372
0.234189
0.233464
0.125518
-0.269120
0.169871
0.151988
-0.001219
0.082552
0.129440
0.213098
0.068768
-0.306956
-0.178524
0.100746
-0.135046
-0.066109
-0.430106
-0.064794
-0.236342
0.005763
-0.060637
-0.603495
-0.262760
0.012532
-0.176564
0.171486
-0.246583
0.084627
0.139179
-0.348745
-0.071470
-0.190687
0.195532
0.208693
0.239908
-0.101755
-0.332941
0.067986
0.152222
0.449895
0.175532
-0.216079
-0.026673
0.066028
0.079824
0.251809
0.085256
-0.271666
-0.300501
0.096438
-0.089267
-0.074419
-0.142191
0.044589
0.259454
0.038061
-0.600324
-0.140336
0.152847
0.370415
0.022282
0.060336
-0.228783
-0.091474
-0.007379
0.231599
0.311032
-0.012564
0.218194
-0.153885
-0.371294
-0.256935
0.009355
-0.221884
-1.021440
-0.031013
-0.373373
-0.040815
0.185662
0.204042
-0.233646
0.092905
0.033015
0.089059
0.176503
0.078938
-0.600368
-0.232117
0.195138
0.495086
0.126928
0.108656
0.089212
0.192511
0.069906
-0.110523
0.081320
0.019612
0.227151
-0.284676
-0.224316
-0.045062
-0.390922
0.018992
0.248638
0.005882
0.242082
-0.134698
0.055289
0.207676
0.109361
0.116934
0.228963
-0.032774
0.010000
0.172330
0.162684
0.182338
0.100089
0.055976
-0.093755
-0.126878
0.002570
-0.091734
-0.108269
0.242687
0.272485
-0.163897
0.299194
0.120494
0.322234
0.207994
0.263428
0.168579
-0.283953
-0.112057
-0.415236
-0.201061
-0.523106
0.010580
0.136605
0.152869
-0.333915
0.138522
-0.565569
-0.136650
-0.309108
-0.037548
-0.038259
0.205616
0.060375
0.113422
0.078265
0.074580
0.091442
0.079517
0.282836
0.173039
-0.343353
0.083187
-0.334386
0.312952
0.081818
0.331805
-0.228302
0.310282
0.229346
0.096076
0.133670
-0.073286
-0.479865
0.180203
0.103249
0.212972
0.274974
0.031677
-0.223949
-0.037035
-0.377648
-0.164824
-0.253126
-0.241636
0.202299
-0.369727
0.359471
-0.076025
0.374885
-0.042106
0.156114
-0.388546
-0.395803
-0.217052
-0.262953
-0.484640
0.140163
0.083737
-0.544750
-0.308514
0.284557
0.291880
0.316701
0.121995
-0.798272
0.023762
0.247624
0.220205
-0.281904
0.175865
0.220698
0.226822
-0.114427
-0.198850
0.249001
0.416754
0.057414
-0.425440
-0.719090
-0.085316
0.389026
-0.033160
-0.198914
0.008959
-0.579547
-0.054703
0.100790
-0.150711
0.059820
-0.103165
-0.060496
-0.407902
0.349032
-0.079758
0.223066
0.164420
-0.266969
0.023115
-0.524683
0.158125
-0.052775
-0.033277
0.070488
-0.255010
-0.067207
-0.238750
-0.232093
0.130573
-0.277650
-0.319287
-0.002529
-0.041432
0.000354
-0.047765
-0.044736
0.033788
-0.022173
-0.003244
0.108478
-0.045020
-0.135135
0.178954
-0.138418
-0.109421
-0.068223
0.220659
0.119860
0.028668
0.089790
-0.218136
-0.423674
0.277665
-0.338984
-0.534148
-0.319331
0.035517
0.028545
0.086313
-0.230637
-0.022085
-0.409452
-0.142320
0.021679
-0.002597
0.000224
-0.011329
0.048497
-0.197557
0.081205
0.048398
0.088212
-0.067383
-0.076153
-0.393040
-0.375345
-0.344216
0.270809
0.445502
0.181514
0.089453
-0.037761
-0.104415
-0.124378
-0.230762
0.146195
0.145060
0.150150
-0.066910
0.157117
-0.126288
-0.383686
-0.545840
0.044921
-0.811586
-0.021420
-0.402129
-0.593685
0.192304
-0.434794
0.320724
0.146777
0.367992
0.147629
0.301500
0.127653
-0.316937
0.044293
-0.145802
-0.296219
-0.242954
0.489695
0.114075
0.136955
0.205972
0.040029
-0.237141
-0.461192
0.079776
-0.089961
0.316743
0.214088
-0.096447
0.207935
-0.030318
-0.311878
-0.300388
0.195500
-0.286776
-0.548844
-0.164502
-0.269254
-0.320464
-0.073626
-0.399359
0.227208
-0.114204
0.142963
0.252204
-0.025638
0.142651
0.168618
-0.648454
-0.305090
-0.083433
0.030989
-0.037557
-0.080351
-0.019078
0.023257
-0.230986
-0.048212
-0.019111
0.007427
0.296339
0.063709
0.191992
-0.407657
-0.041760
-0.011786
0.268525
0.175816
0.461836
-0.436499
0.072535
-0.160182
0.223559
0.337989
0.127396
0.255850
0.081174
0.280213
0.157742
-0.153244
0.070851
0.100952
0.112084
0.168141
-0.006233
-0.477168
0.108099
0.143395
0.294115
0.010012
0.001350
-0.037686
-0.367350
-0.068392
0.120502
0.120542
-0.267499
0.133572
-0.101518
0.060432
0.125707
0.174158
0.013425
-0.766454
0.112144
0.410833
0.185958
-0.688452
-0.328137
-0.361940
0.137904
-0.336356
0.140986
0.067519
-0.324600
-0.389817
-0.361553
0.266647
0.296653
0.092166
-0.775530
0.206974
-0.201169
0.073683
-0.175414
-0.107458
0.043766
-0.450987
0.125536
-0.245266
-0.484992
-0.446990
-0.292171
-0.298690
-0.084430
0.149576
-0.486816
-0.274801
-0.405272
-0.587831
-0.717687
0.027142
-0.478705
-1.072700
-0.128204
0.244136
0.017217
0.182698
0.077455
-0.251812
-0.087418
-0.052621
0.076725
-0.082746
-0.129591
-0.421933
-0.028378
-0.346573
-0.177720
-0.481433
0.230951
0.204979
0.124594
0.017077
-0.284088
0.065953
0.005557
0.060437
0.127076
-0.549596
-0.059445
0.068721
0.061465
0.203246
-0.536860
-0.351008
-0.057802
0.165121
-0.076371
0.103669
-0.428548
0.425422
0.055077
0.028892
0.017948
0.075361
0.049648
0.108715
-0.013633
-0.082527
-0.021055
0.165162
-0.529282
0.040521
-0.125709
0.104883
-0.283707
-0.007657
-0.091020
-0.353619
-0.430700
-0.239555
0.101327
-0.313996
0.180077
-0.182752
0.164359
0.382349
0.132558
-0.063766
-0.225189
-0.292899
-0.060843
-0.043318
0.018694
0.226581
0.362375
0.046993
0.321310
0.299722
-0.041355
-0.306821
-0.077278
-0.279558
-0.490217
0.073394
-0.031962
-0.201439
0.224167
0.015503
0.150935
0.152694
0.132257
0.229903
0.255500
0.218611
0.217267
0.077227
-0.366661
0.066618
0.292215
0.141324
0.146817
-0.166610
0.174617
0.141879
-0.158388
-0.240815
0.170855
0.036604
-0.173774
0.137868
-0.045027
-0.265368
0.112799
-0.254920
-0.830516
-0.003711
0.199343
0.273213
0.153786
0.336974
-0.181554
-0.348267
0.219542
0.350923
0.475592
-0.155501
-0.714755
0.031896
0.179100
0.142749
0.300954
0.179506
0.175964
0.144522
0.102422
-0.163267
0.179443
-0.078766
-0.066259
0.078016
-0.072382
0.145650
0.143036
-0.129809
0.040097
-0.488992
-0.143935
-0.065509
-0.110260
-0.052762
0.122311
-0.021087
0.239552
0.048811
0.119011
0.200675
0.058029
0.237181
0.182501
0.051059
-0.482841
0.440239
0.143524
0.233392
0.248675
-0.293494
0.186093
-0.172829
-0.264839
0.118795
0.255378
0.363869
0.011897
0.103805
0.218482
-0.306324
0.406008
-0.043323
-0.217418
-0.497226
0.168209
0.248650
-0.398198
0.335504
-0.511453
-0.390238
0.035946
-0.376807
0.019309
-0.332553
-0.529912
0.113834
-0.380778
0.421242
0.219059
0.172261
0.034803
-0.421129
-0.082653
-0.410492
0.041099
0.083050
0.121041
0.077716
0.101082
0.253478
0.144959
0.242451
0.169484
-0.019690
0.055403
0.035142
0.000340
-0.051657
0.071376
-0.026058
0.051580
0.210281
-0.016757
-0.115332
-0.062280
-0.376170
0.115937
-0.165179
0.314953
-0.355296
0.221307
0.028990
0.239438
-0.318975
0.093384
0.012332
0.126428
0.070134
0.048526
-0.001908
-0.078160
-0.070785
-0.458229
0.028819
0.101015
0.127281
0.001482
0.103602
0.044868
0.195270
-0.081992
0.100379
-0.034465
-0.040412
-0.212973
-0.446069
0.163519
-0.265074
-0.016176
0.326145
0.008799
-0.471827
-0.280389
0.227848
-0.551211
0.016772
0.042425
-0.180507
-0.302158
0.068072
-0.410790
-0.376042
0.085185
-0.099151
0.203413
0.178411
-0.058631
0.032054
-0.125557
-0.777519
0.027196
0.347066
0.151062
-0.120812
-0.141245
0.004274
-0.038472
-0.025783
-0.157465
-0.106790
-0.546815
0.056524
-0.144836
-0.115434
0.017763
0.166249
0.090050
-0.040755
-0.201122
-0.013968
0.039224
-0.075475
0.070267
0.044755
-0.399288
-0.044855
0.013706
0.189096
-0.085636
0.226723
0.231385
-0.367304
-0.069107
-0.155492
-0.100539
0.023538
-0.015453
0.260946
0.135896
0.317785
0.048224
0.035518
0.067278
-0.195678
-0.211497
-0.549948
-0.180061
-0.260221
-0.390529
-0.331588
0.208310
0.102937
0.000614
-0.073353
-0.125880
-0.253783
0.203416
0.127769
0.162938
0.043318
0.153896
0.206675
-0.295233
-0.418850
-0.361316
-0.015774
-0.039241
0.074777
-0.093470
-0.034804
0.151006
0.066949
-0.124557
0.091705
-0.182471
-0.097526
0.073708
0.145293
0.188439
0.223262
0.060181
-0.480497
0.001938
0.128401
0.211575
-0.174092
0.295618
-0.299649
-0.371058
-0.455705
0.027128
0.188513
-0.266449
0.028688
-0.338424
-0.063905
-0.054999
-0.482454
-0.115783
0.335639
0.279620
0.064627
-0.395870
-0.106811
-0.094315
-0.287171
-0.436625
0.140655
0.176215
0.222804
0.388248
-0.041173
-0.460364
0.095276
-0.048320
0.055045
0.184810
-0.394233
-0.113007
-0.360898
-0.197683
-0.021163
0.211627
0.346746
0.244183
0.270349
-0.038117
-0.458756
0.354140
-0.091968
0.224907
-0.004368
0.238716
0.160706
-0.076494
-0.116554
0.076228
-0.127746
-0.137327
-0.201838
0.287449
0.117208
0.274541
0.075913
-0.195050
-0.258100
-0.364559
-0.266312
0.198091
-0.043874
-0.029733
0.033149
0.026438
0.388623
-0.122528
0.220585
-0.147286
0.030533
0.049656
-0.296745
0.338532
-0.012646
-0.051320
-0.068167
-0.006621
0.083144
0.001570
-0.022192
-0.024923
0.107035
-0.138932
-0.061914
0.032078
0.136444
-0.118853
-0.584175
-0.111465
0.056837
0.227460
0.195532
-0.008398
0.038866
0.004144
-0.102197
0.105104
-0.366301
-0.304967
-0.387685
-0.164921
0.061872
-0.059727
-0.017011
-0.063409
-0.107731
0.128742
0.244458
-0.001667
0.183166
-0.130731
0.153657
-0.035418
-0.001751
0.032229
0.410283
0.238038
-0.273830
-0.324837
0.232392
0.133218
-0.124317
0.107838
0.364843
0.051781
0.200678
-0.547697
-0.656431
0.077089
0.024791
0.183809
0.308270
0.311669
0.071306
-0.168953
-0.110161
0.105933
0.317836
0.134245
-0.006208
-0.150948
-0.486897
-0.275911
-0.539542
-0.382801
0.233375
0.088858
0.363769
-0.077150
-0.144015
-0.164817
-0.545397
0.008246
0.333659
0.017914
-0.356065
-0.601670
-0.213301
-0.013196
-0.190555
-0.244192
0.036603
-0.313587
-0.253094
-0.329491
-0.173874
0.033029
0.377683
0.093986
-0.055225
0.187094
-0.021902
-0.219801
-0.212546
-0.052160
0.082093
0.178463
0.271315
0.142343
0.056936
-0.036848
0.019931
-0.523035
-0.094601
-0.052700
-0.226548
0.163494
0.340422
0.273346
0.112944
-0.776916
-0.035223
0.039279
0.153414
0.135587
0.079880
0.049986
0.351252
0.101878
-0.354818
-0.282333
0.236386
-0.096384
-0.446956
-0.196074
-0.137971
-0.078989
-0.081972
0.018091
-0.532563
0.064435
-0.285113
-0.010469
0.193101
0.101175
0.027513
0.296042
0.216953
-0.146528
0.262146
0.167652
-0.169077
0.116280
0.129411
0.164646
0.286055
0.309537
0.309690
0.346005
0.032378
0.177036