# vtk DataFile Version 3.0
vtk output
ASCII
DATASET POLYDATA
POINTS 10242 float
0 0 100
27.64 -85.07 44.72
89.44 0 44.72
27.64 85.07 44.72
-72.36 52.57 44.72
-72.36 -52.57 44.72
-27.64 -85.07 -44.72
72.36 -52.57 -44.72
72.36 52.57 -44.72
-27.64 85.07 -44.72
-89.44 0 -44.72
0 0 -100
-42.53 30.9 85.07
-26.29 80.9 52.57
16.25 50 85.07
-42.53 -30.9 85.07
-85.07 0 52.57
16.25 -50 85.07
-26.29 -80.9 52.57
52.57 0 85.07
68.82 -50 52.57
68.82 50 52.57
58.78 80.9 0
95.11 30.9 0
0 100 0
26.29 80.9 -52.57
-58.78 80.9 0
-95.11 30.9 0
-68.82 50 -52.57
-95.11 -30.9 0
-58.78 -80.9 0
-68.82 -50 -52.57
0 -100 0
58.78 -80.9 0
26.29 -80.9 -52.57
95.11 -30.9 0
85.07 0 -52.57
-16.25 50 -85.07
42.53 30.9 -85.07
-52.57 0 -85.07
-16.25 -50 -85.07
42.53 -30.9 -85.07
-22.11 16.06 96.19
-13.82 42.53 89.44
8.44 25.99 96.19
-22.11 -16.06 96.19
-44.72 0 89.44
8.44 -25.99 96.19
-13.82 -42.53 89.44
27.33 0 96.19
36.18 -26.29 89.44
36.18 26.29 89.44
44.92 86.27 23.25
67.08 68.82 27.64
50.14 70.2 50.57
14.37 96.19 23.25
30.9 95.11 0
0.7 86.27 50.57
-13.82 95.11 27.64
-87.05 43.39 23.25
-80.9 58.78 0
-68.16 69.38 23.25
-81.83 27.33 50.57
-94.72 16.25 27.64
-68.16 -69.38 23.25
-80.9 -58.78 0
-87.05 -43.39 23.25
-51.28 -69.38 50.57
-44.72 -85.07 27.64
44.92 -86.27 23.25
30.9 -95.11 0
14.37 -96.19 23.25
50.14 -70.2 50.57
67.08 -68.82 27.64
95.93 16.06 23.25
100 0 0
95.93 -16.06 23.25
51.28 69.38 -50.57
36.18 58.78 -72.36
59.72 43.39 -67.46
-50.14 70.2 -50.57
-44.72 52.57 -72.36
-22.81 70.2 -67.46
-82.26 -25.99 -50.57
-63.82 -26.29 -72.36
-73.82 0 -67.46
-0.7 -86.27 -50.57
5.28 -68.82 -72.36
-22.81 -70.2 -67.46
81.83 -27.33 -50.57
67.08 -16.25 -72.36
59.72 -43.39 -67.46
-59.72 43.39 67.46
-51.28 69.38 50.57
-36.18 58.78 72.36
-5.28 68.82 72.36
22.81 70.2 67.46
-59.72 -43.39 67.46
-81.83 -27.33 50.57
-67.08 -16.25 72.36
-67.08 16.25 72.36
22.81 -70.2 67.46
0.7 -86.27 50.57
-5.28 -68.82 72.36
-36.18 -58.78 72.36
73.82 0 67.46
82.26 -25.99 50.57
63.82 -26.29 72.36
44.72 -52.57 72.36
44.72 52.57 72.36
63.82 26.29 72.36
82.26 25.99 50.57
68.16 69.38 -23.25
87.05 43.39 -23.25
80.9 58.78 0
86.18 42.53 27.64
-14.37 96.19 -23.25
-0.7 86.27 -50.57
13.82 95.11 -27.64
44.72 85.07 -27.64
-44.72 85.07 27.64
-30.9 95.11 0
-44.92 86.27 -23.25
-95.93 16.06 -23.25
-82.26 25.99 -50.57
-86.18 42.53 -27.64
-67.08 68.82 -27.64
-94.72 -16.25 27.64
-100 0 0
-95.93 -16.06 -23.25
-44.92 -86.27 -23.25
-50.14 -70.2 -50.57
-67.08 -68.82 -27.64
-86.18 -42.53 -27.64
-13.82 -95.11 27.64
-30.9 -95.11 0
-14.37 -96.19 -23.25
68.16 -69.38 -23.25
51.28 -69.38 -50.57
44.72 -85.07 -27.64
13.82 -95.11 -27.64
86.18 -42.53 27.64
80.9 -58.78 0
87.05 -43.39 -23.25
81.83 27.33 -50.57
94.72 16.25 -27.64
94.72 -16.25 -27.64
5.28 68.82 -72.36
13.82 42.53 -89.44
-8.44 25.99 -96.19
22.11 16.06 -96.19
-63.82 26.29 -72.36
-36.18 26.29 -89.44
-27.33 0 -96.19
-44.72 -52.57 -72.36
-36.18 -26.29 -89.44
-8.44 -25.99 -96.19
36.18 -58.78 -72.36
13.82 -42.53 -89.44
22.11 -16.06 -96.19
67.08 16.25 -72.36
44.72 0 -89.44
-11.16 8.11 99.04
-6.92 21.3 97.46
4.26 13.12 99.04
-11.16 -8.11 99.04
-22.4 0 97.46
4.26 -13.12 99.04
-6.92 -21.3 97.46
13.8 0 99.04
18.12 -13.17 97.46
18.12 13.17 97.46
36.63 86.49 34.31
48.15 79.26 37.39
39.26 78.38 48.11
21.21 91.5 34.31
30.03 92.43 23.55
14.31 86.49 48.11
7.63 92.43 37.39
-80.47 48.44 34.31
-78.63 57.13 23.55
-70.94 61.56 34.31
-77.84 40.34 48.11
-85.55 35.82 37.39
-70.94 -61.56 34.31
-78.63 -57.13 23.55
-80.47 -48.44 34.31
-62.41 -61.56 48.11
-60.51 -70.29 37.39
36.63 -86.49 34.31
30.03 -92.43 23.55
21.21 -91.5 34.31
39.26 -78.38 48.11
48.15 -79.26 37.39
93.58 8.11 34.31
97.19 0 23.55
93.58 -8.11 34.31
62.41 61.56 -48.11
56.23 57.13 -59.79
66.68 48.44 -56.63
-39.26 78.38 -48.11
-36.95 71.13 -59.79
-25.47 78.38 -56.63
-86.68 -13.12 -48.11
-79.07 -13.17 -59.79
-82.42 0 -56.63
-14.31 -86.49 -48.11
-11.91 -79.26 -59.79
-25.47 -78.38 -56.63
77.84 -40.34 -48.11
71.7 -35.82 -59.79
66.68 -48.44 -56.63
-51.62 37.5 77
-48.45 51.61 70.63
-39.85 45.4 79.69
1.23 46.84 88.34
-9.68 56.43 81.99
5.55 60.15 79.69
8.86 70.23 70.63
19.72 60.68 77
-51.62 -37.5 77
-64.06 -30.13 70.63
-55.49 -23.87 79.69
-44.17 15.64 88.34
-56.65 8.23 81.99
-55.49 23.87 79.69
-64.06 30.13 70.63
19.72 -60.68 77
8.86 -70.23 70.63
5.55 -60.15 79.69
-28.53 -37.17 88.34
-25.34 -51.34 81.99
-39.85 -45.4 79.69
-48.45 -51.61 70.63
63.81 0 77
69.53 -13.28 70.63
58.92 -13.31 79.69
26.54 -38.62 88.34
41 -39.96 81.99
30.86 -51.93 79.69
34.12 -62.02 70.63
34.12 62.02 70.63
30.86 51.93 79.69
44.93 13.31 88.34
50.67 26.64 81.99
58.92 13.31 79.69
69.53 13.28 70.63
64.08 75.87 -11.73
75.3 64.74 -11.74
70.71 70.71 0
68.8 60.15 40.61
77.66 56.43 28.01
78.47 46.84 40.61
85.09 34.62 39.51
76.27 38.36 52.07
-7.25 99.04 -11.73
-0.28 96.64 -25.71
7 98.77 -13.99
45.4 89.1 0
38.32 91.3 -14.01
52.39 84.02 -13.99
57.03 78.02 -25.71
-39.16 75.87 52.07
-48.49 78.02 39.51
-35.95 84.02 40.61
-7 98.77 13.99
-22.66 96.39 14.01
-15.64 98.77 0
-22.87 96.64 -11.74
-96.44 23.71 -11.73
-91.99 29.6 -25.71
-91.77 37.17 -13.99
-70.71 70.71 0
-74.99 64.66 -14.01
-63.71 75.79 -13.99
-56.58 78.35 -25.71
-52.35 84.39 -11.73
-84.25 -13.8 52.07
-89.19 -22.01 39.51
-91.01 -8.22 40.61
-96.1 23.87 13.99
-98.67 8.23 14.01
-98.77 15.64 0
-98.98 8.11 -11.74
-52.35 -84.39 -11.73
-56.58 -78.35 -25.71
-63.71 -75.79 -13.99
-89.1 -45.4 0
-84.67 -51.34 -14.01
-91.77 -37.17 -13.99
-91.99 -29.6 -25.71
-96.44 -23.71 -11.73
-12.92 -84.39 52.07
-6.63 -91.62 39.51
-20.3 -89.1 40.61
-52.39 -84.02 13.99
-38.32 -91.3 14.01
-45.4 -89.1 0
-38.3 -91.62 -11.74
64.08 -75.87 -11.73
57.03 -78.02 -25.71
52.4 -84.02 -13.99
15.64 -98.77 0
22.66 -96.39 -14.01
7 -98.77 -13.99
-0.28 -96.64 -25.71
-7.25 -99.04 -11.73
76.27 -38.36 52.07
85.09 -34.62 39.51
78.47 -46.84 40.61
63.71 -75.79 13.99
74.99 -64.66 14.01
70.71 -70.71 0
75.3 -64.74 -11.74
91.96 37.5 -11.73
91.82 30.13 -25.71
96.1 23.87 -13.99
98.77 -15.64 0
98.67 -8.23 -14.01
96.1 -23.87 -13.99
91.82 -30.13 -25.71
91.96 -37.5 -11.73
12.92 84.39 -52.07
2.31 78.35 -62.1
15.98 75.79 -63.25
39.85 45.4 -79.69
25.34 51.34 -81.99
28.53 37.17 -88.34
18.15 29.6 -93.78
32.63 23.71 -91.5
-76.27 38.36 -52.07
-73.8 26.41 -62.1
-67.15 38.62 -63.25
-30.86 51.93 -79.69
-41 39.96 -81.99
-26.54 38.62 -88.34
-22.54 26.41 -93.78
-12.46 38.36 -91.5
-60.05 -60.68 -52.07
-47.92 -62.02 -62.1
-57.48 -51.93 -63.25
-58.92 -13.31 -79.69
-50.67 -26.64 -81.99
-44.93 -13.31 -88.34
-32.08 -13.28 -93.78
-40.34 0 -91.5
39.16 -75.87 -52.07
44.18 -64.74 -62.1
31.62 -70.71 -63.25
-5.55 -60.15 -79.69
9.68 -56.43 -81.99
-1.23 -46.84 -88.34
2.72 -34.62 -93.78
-12.46 -38.36 -91.5
84.25 13.8 -52.07
75.22 22.01 -62.1
77.02 8.22 -63.25
55.49 -23.87 -79.69
56.65 -8.23 -81.99
44.17 -15.64 -88.34
33.76 -8.11 -93.78
32.63 -23.71 -91.5
-32.63 23.71 91.5
-28.53 37.17 88.34
-18.15 29.6 93.78
-2.72 34.62 93.78
12.46 38.36 91.5
-32.63 -23.71 91.5
-44.17 -15.64 88.34
-33.76 -8.11 93.78
-33.76 8.11 93.78
12.46 -38.36 91.5
1.23 -46.84 88.34
-2.72 -34.62 93.78
-18.15 -29.6 93.78
40.34 0 91.5
44.93 -13.31 88.34
32.08 -13.28 93.78
22.54 -26.41 93.78
26.54 38.62 88.34
22.54 26.41 93.78
32.08 13.28 93.78
52.35 84.39 11.73
63.71 75.79 13.99
56.58 78.35 25.71
59.22 70.23 39.51
60.05 60.68 52.07
7.25 99.04 11.73
15.64 98.77 0
22.87 96.64 11.74
38.3 91.62 11.74
-12.92 84.39 52.07
-20.3 89.1 40.61
-6.63 91.62 39.51
0.28 96.64 25.71
-91.96 37.5 11.73
-89.1 45.4 0
-84.84 51.61 11.74
-75.3 64.74 11.74
-64.08 75.87 11.73
-84.25 13.8 52.07
-91.01 8.22 40.61
-89.19 22.01 39.51
-91.82 30.13 25.71
-64.08 -75.87 11.73
-70.71 -70.71 0
-75.3 -64.74 11.74
-84.84 -51.61 11.74
-91.96 -37.5 11.73
-39.16 -75.87 52.07
-35.95 -84.02 40.61
-48.49 -78.02 39.51
-57.03 -78.02 25.71
52.35 -84.39 11.73
45.4 -89.1 0
38.3 -91.62 11.74
22.87 -96.64 11.74
7.25 -99.04 11.73
60.05 -60.68 52.07
68.8 -60.15 40.61
59.22 -70.23 39.51
56.58 -78.35 25.71
96.44 23.71 11.73
98.77 15.64 0
98.98 8.11 11.74
98.98 -8.11 11.74
96.44 -23.71 11.73
39.16 75.87 -52.07
31.62 70.71 -63.25
44.18 64.74 -62.1
48.45 51.61 -70.63
51.62 37.5 -77
-60.05 60.68 -52.07
-57.48 51.93 -63.25
-47.92 62.02 -62.1
-34.12 62.02 -70.63
-19.72 60.68 -77
-76.27 -38.36 -52.07
-67.15 -38.62 -63.25
-73.8 -26.41 -62.1
-69.53 -13.28 -70.63
-63.81 0 -77
12.92 -84.39 -52.07
15.98 -75.79 -63.25
2.31 -78.35 -62.1
-8.86 -70.23 -70.63
-19.72 -60.68 -77
84.25 -13.8 -52.07
77.02 -8.22 -63.25
75.22 -22.01 -62.1
64.06 -30.13 -70.63
51.62 -37.5 -77
-66.68 48.44 56.63
-62.41 61.56 48.11
-56.23 57.13 59.79
-44.18 64.74 62.1
-31.62 70.71 63.25
-25.34 51.34 81.99
-21.01 64.66 73.33
-15.98 75.79 63.25
-2.31 78.35 62.1
11.91 79.26 59.79
25.47 78.38 56.63
-66.68 -48.44 56.63
-77.84 -40.34 48.11
-71.7 -35.82 59.79
-75.22 -22.01 62.1
-77.02 -8.22 63.25
-56.65 -8.23 81.99
-67.99 0 73.33
-77.02 8.22 63.25
-75.22 22.01 62.1
-71.7 35.82 59.79
25.47 -78.38 56.63
14.31 -86.49 48.11
11.91 -79.26 59.79
-2.31 -78.35 62.1
-15.98 -75.79 63.25
-9.68 -56.43 81.99
-21.01 -64.66 73.33
-31.62 -70.71 63.25
-44.18 -64.74 62.1
-56.23 -57.13 59.79
82.42 0 56.63
86.68 -13.12 48.11
79.07 -13.17 59.79
73.8 -26.41 62.1
67.15 -38.62 63.25
50.67 -26.64 81.99
55 -39.96 73.33
57.48 -51.93 63.25
47.92 -62.02 62.1
36.95 -71.13 59.79
36.95 71.13 59.79
47.92 62.02 62.1
57.48 51.93 63.25
41 39.96 81.99
55 39.96 73.33
67.15 38.62 63.25
73.8 26.41 62.1
79.07 13.17 59.79
86.68 13.12 48.11
70.94 61.56 -34.31
80.47 48.44 -34.31
78.63 57.13 -23.55
84.84 51.61 -11.74
89.1 45.4 0
74.99 64.66 14.01
84.67 51.34 14.01
91.77 37.17 13.99
91.99 29.6 25.71
90.27 21.3 37.39
-21.21 91.5 -34.31
-14.31 86.49 -48.11
-7.63 92.43 -37.39
6.63 91.62 -39.51
20.3 89.1 -40.61
22.66 96.39 -14.01
29.66 91.3 -28.01
35.95 84.02 -40.61
48.49 78.02 -39.51
60.51 70.29 -37.39
-60.51 70.29 37.39
-57.03 78.02 25.71
-52.4 84.02 13.99
-29.66 91.3 28.01
-38.32 91.3 14.01
-45.4 89.1 0
-38.3 91.62 -11.74
-30.03 92.43 -23.55
-36.63 86.49 -34.31
-93.58 8.11 -34.31
-86.68 13.12 -48.11
-90.27 21.3 -37.39
-85.09 34.62 -39.51
-78.47 46.84 -40.61
-84.67 51.34 -14.01
-77.66 56.43 -28.01
-68.8 60.15 -40.61
-59.22 70.23 -39.51
-48.15 79.26 -37.39
-85.55 -35.82 37.39
[...]
POINT_DATA 10242
SCALARS curv float
LOOKUP_TABLE curvTable
0.220844
0.292427
0.271743
0.188563
-0.502084
0.165685
-0.370401
0.324659
0.00249677
0.0502718
-0.188513
-0.932905
0.112559
-0.0742149
0.130783
-0.151676
-0.195945
0.329353
0.148557
-0.128213
-0.0699574
-0.158984
-0.364564
-0.00529385
0.11914
0.0637125
-0.42704
0.285156
0.0284983
-0.262507
-0.238485
-0.246257
-0.00617455
-0.0590484
-0.298133
-0.0380862
0.0887176
-0.0794261
0.0048289
0.0632936
0.203849
0.106342
0.179179
-0.131623
-0.250586
-0.137654
0.0628288
-0.367278
0.118818
0.237406
-0.516729
0.0768029
-0.167761
-0.220661
-0.0176714
0.320195
-0.773656
0.145854
0.19724
0.122563
0.0799344
0.269421
-0.877862
-0.369374
0.0437039
0.126428
0.388946
0.146996
0.234106
-0.486472
-0.108233
-0.0479359
0.186707
0.212412
-0.000583976
-0.0021148
-0.13738
-0.0943692
-0.481277
0.00553458
0.0164852
0.049995
0.0615642
0.190443
-0.0141296
0.0123579
-0.396429
-0.0205062
-0.448582
-0.11307
0.057697
-0.517077
-0.0267322
-0.273407
-0.446224
0.0693566
0.224969
0.146894
-0.0101184
0.0457917
-0.0539708
-0.167329
0.217969
0.091468
0.188706
-0.239121
0.048941
0.0611267
0.026669
-0.450869
-0.0482535
-0.00720149
0.366806
-0.000902042
-0.0252521
0.279801
0.202623
0.0543567
-0.237334
-0.522315
0.167953
-0.58662
0.138094
0.13134
-0.351489
0.0202258
0.21728
-0.0144603
0.172471
-0.274297
-0.312773
-0.187138
0.131717
0.246343
0.179316
-0.661973
-0.515915
-0.204762
0.166128
-0.131588
-0.222619
0.0331966
0.12064
0.10532
0.0177797
0.027101
0.205532
-0.172513
0.10438
-0.191367
0.0552194
-0.0682608
-0.130852
0.233135
0.118182
-0.0754308
-0.149036
0.190573
-0.116673
0.17756
-0.163107
-0.421798
0.151363
0.0136139
-0.421263
0.137785
-0.0195129
0.0942188
-0.26717
0.244948
-0.0371989
0.0403493
0.226319
-0.261668
0.0505991
-0.213486
-0.0638084
-0.257269
0.226481
-0.0500532
0.391712
0.0190097
0.16106
-0.30832
-0.0656767
0.0260935
-0.0465563
-0.0913819
-0.472462
0.237403
-0.516792
-0.0771909
-0.195598
-0.580973
0.354415
-0.280414
0.033203
-0.211895
0.0337859
0.121065
0.241893
0.0391895
0.0429486
0.05152
0.00980214
-0.23953
-0.243584
0.0255287
-0.498031
0.127023
0.13362
0.0383023
0.193863
0.01217
0.019388
0.01868
0.321914
-0.304644
-0.36066
0.179687
0.286754
0.433994
0.0169963
0.023375
0.0933821
0.0639376
0.0202319
-0.112001
0.0730743
-0.229426
-0.293825
-0.0528936
-0.0243891
0.0423067
-0.0728042
0.00720078
0.0458077
-0.100323
-0.299136
0.0680891
0.098861
0.31803
0.00782063
-0.371764
-0.313706
0.108491
0.0596919
-0.161899
-0.259057
0.122712
0.037892
-0.318831
-0.313464
0.315821
0.230828
0.27668
-0.32887
-0.160325
0.162657
-0.181338
0.525493
0.142667
0.258243
0.211857
0.0926435
-0.0507828
-0.448049
-0.22886
0.221345
0.140507
0.129788
0.0267017
-0.0145687
0.048993
-0.132504
0.11827
0.346113
0.174293
-0.55669
-0.516032
-0.0954146
0.0598029
0.1897
0.134704
0.127576
0.214851
-0.0428558
-0.242507
0.0463525
0.0866172
-0.263007
-0.177537
-0.108047
0.291394
-0.134239
0.308525
0.056273
-0.0192644
-0.202074
-0.0246365
0.0664104
-0.0461802
0.421358
0.190179
-0.527922
0.220211
0.239851
0.212991
-0.312777
-0.0776648
-0.0081858
0.0453187
0.0773517
0.405015
-0.0563741
0.000111305
-0.00357662
-0.118386
0.292126
-0.131687
-0.181293
-0.363595
0.144703
0.167587
0.406705
-0.0629765
0.0965546
0.0973118
-0.018149
0.203944
0.199358
-0.12687
0.282101
-0.0361246
0.176827
0.194007
0.166986
-0.104357
0.0613799
0.162513
-0.246542
-0.195647
-0.128763
-0.4238
0.309438
-0.169965
-0.207787
-0.0368127
0.160731
0.0584115
-0.427977
-0.0732354
-0.0761474
0.0336928
0.0552364
-0.109961
-0.1677
-0.00336199
-0.286768
-0.00312269
-0.175304
0.0516044
0.176801
-0.017921
0.0813819
-0.57302
0.0945845
-0.286343
0.115292
-0.258912
-0.0437176
0.196097
0.275463
-0.00964786
0.214867
0.0809532
-0.0402374
0.00544718
-0.61744
0.179177
0.270929
0.00640966
-0.282042
0.169498
-0.142796
-0.0400366
0.181001
-0.527055
0.0628144
0.241811
-0.384658
-0.181234
0.132082
0.0995308
0.242668
0.246111
0.149615
-0.108814
-0.309669
0.159782
-0.110633
0.178304
0.309824
-0.33478
-0.0569486
0.151361
0.0345479
-0.0988276
0.0726964
0.240619
0.0225314
0.231853
-0.3303
0.158151
-0.0568533
0.160306
-0.326421
-0.737546
0.147945
0.0237251
-0.00235434
-0.337744
-0.0364435
-0.0445196
0.0859113
-0.0558133
0.132829
-0.125356
-0.239398
0.302909
0.125526
0.020767
0.0931203
0.199804
-0.0540299
0.0220351
-0.0328674
0.301578
-0.242107
0.277869
0.282596
0.0381173
0.154726
0.0826354
0.304233
-0.602427
-0.0276757
0.194335
0.214196
0.0825892
-0.297436
0.175102
0.0879655
0.0820096
-0.406202
0.139405
-0.280563
0.312059
-0.194582
0.180446
-0.3523
0.142144
0.225193
0.061767
0.202554
-0.345727
0.193564
0.0214148
-0.100119
-0.0820458
0.0849342
-0.367652
0.139509
0.00843706
-0.131284
-0.221214
-0.0907224
0.0988656
-0.165594
-0.122087
0.21664
-0.207686
0.270887
-0.0469457
0.0512631
0.126398
0.212308
0.120639
0.34332
0.0630584
-0.0874142
-0.148281
-0.0792504
0.0382615
-0.225633
-0.203057
-0.175031
0.10969
-0.465947
-0.406524
0.201672
-0.00928449
0.0423383
-0.0318404
0.0803648
-0.495934
-0.06054
-0.106752
-0.181013
-0.205597
-0.032967
0.16178
-0.0112575
0.020472
0.10847
0.0857148
-0.0348576
-0.609363
0.322669
-0.453302
-0.297093
-0.0902653
0.15815
-0.300356
0.145719
0.166178
0.218558
-0.316805
-0.291208
0.0967795
-0.186123
-0.212313
0.132905
0.242143
0.173275
-0.00269871
-0.159381
0.128234
0.00803907
0.314536
-0.0826145
-0.23646
-0.491373
-0.0674989
-0.0702699
0.177221
0.0366876
-0.00315119
0.0430434
0.0302767
-0.333051
0.179769
-0.0220872
-0.456867
-0.191008
0.0467954
-0.120994
-0.0281748
0.0188486
0.0492808
0.190338
0.218861
-0.575136
0.26419
0.252239
-0.0569855
-0.0343106
0.00743092
-0.181243
0.420143
0.177906
-0.208694
0.221892
0.181365
0.0942767
0.0799884
-0.379854
-0.201259
0.462111
-0.262934
0.221198
0.33509
-0.0230488
-0.0831343
-0.343341
-0.0739071
-0.0546843
0.514745
-0.00268442
0.00158317
0.0405783
-0.0553441
-0.0096912
-0.0407141
-0.158622
-0.0814345
-0.112613
-0.0299332
-0.262889
0.24697
0.30139
-0.442959
0.0376371
0.119442
-0.0925742
-0.175958
0.013637
-0.00677548
-0.308019
-0.178957
0.110112
0.0901511
0.135303
-0.0266076
0.00713527
0.322777
-0.032388
0.302517
-0.570532
0.198242
0.165661
-0.364701
0.0762607
-0.75793
-0.0127265
-0.310039
-0.285222
-0.225817
0.390279
0.264723
-0.00727075
-0.0653661
0.0423214
0.0637624
-0.174195
-0.0874465
0.0424596
-0.0317488
0.0225859
0.216933
-0.454492
0.113482
0.298457
-0.0746572
-0.172483
0.172875
0.21048
0.0623666
0.137661
0.167658
0.000421699
0.0942818
0.365083
0.0956632
0.175117
-0.166266
-0.0167627
-0.212436
-0.403316
-0.147702
0.160452
-0.101814
-0.148612
-0.27143
-0.239654
-0.466791
-0.329476
0.050165
-0.299264
-0.198435
0.188796
-0.288003
0.0506871
0.103825
0.245069
-0.00214038
0.186437
0.0618486
-0.148644
0.198086
0.141824
0.276948
0.243509
-0.313955
0.122789
-0.407959
0.250413
0.181768
-0.230075
0.0155192
0.197915
0.446423
0.249973
0.099479
-0.057139
0.107373
0.340995
0.279647
0.0141859
0.347533
-0.0610937
0.153678
0.229811
0.24276
0.137016
0.170526
0.143139
0.0621113
-0.505975
-0.223944
0.0860551
-0.0468904
0.273942
0.273794
0.0674271
0.158389
-0.215967
-0.0226755
-0.0101529
0.166169
0.162749
0.00525697
0.0461044
-0.272099
-0.0958641
-0.125218
-0.127157
0.214952
0.228001
0.0175621
0.398811
0.0722076
-0.345196
-0.166558
0.0826441
-0.0512164
-0.304982
0.280829
0.0258568
-0.558213
-0.347662
0.0537148
-0.000393314
-0.14604
-0.141847
-0.197552
-0.0694034
-0.306493
-0.0220265
0.104773
0.253477
-0.420469
0.28816
-0.36672
-0.339611
-0.131714
0.105277
-0.0893404
0.193386
-0.271918
-0.00384206
-0.187588
-0.573329
0.189754
0.0681905
0.160093
0.0809772
0.0824973
0.00747364
-0.186658
-0.515853
-0.336444
-0.311444
-0.197874
-0.119981
0.0222232
-0.0402261
-0.293364
0.13593
-0.13328
-0.149387
-0.250928
-0.0999024
0.303164
-0.512424
-0.165183
0.130877
-0.495619
-0.451233
-0.0918044
0.105197
-0.174165
0.281391
0.431256
-0.00680846
0.0152186
-0.0100074
-0.446618
0.154258
-0.394794
-0.00784752
0.0485921
-0.178799
-0.253046
0.155484
0.0215205
0.043791
0.0457213
0.0471012
0.017314
0.0387473
0.296366
0.0625955
-0.0692447
-0.0447675
-0.132662
0.0773964
-0.139626
-0.0161393
-0.323887
0.0975391
0.179177
-0.151131
-0.0399137
-0.479297
0.106418
-0.071712
-0.285908
-0.163949
-0.0192794
0.283087
-0.357205
0.148591
0.316046
-0.0406131
0.0882899
-0.294918
0.366514
-0.00437253
0.216653
0.34322
0.0733695
0.255454
0.0573002
0.0897422
0.0578638
0.058903
-0.379093
-0.0580678
-0.255377
-0.273447
-0.180639
-0.214433
-0.0448327
-0.180452
0.0636436
0.173748
0.0223957
-0.0514976
-0.0698131
-0.224774
-0.181074
-0.0892186
0.16343
0.147576
0.240035
0.0617013
-0.0776306
-0.126376
-0.898484
0.270049
-0.365501
-0.160767
0.0493744
-0.00302033
0.0984242
0.0915127
-0.428824
0.0935838
-0.284461
-0.192945
-0.419268
-0.239497
-0.275726
-0.288484
0.0762972
-0.203456
0.383897
-0.445425
0.0994228
-0.0834073
0.103552
0.0850805
0.153167
0.32722
-0.171061
-0.149352
0.352848
0.15092
0.306071
0.191206
-0.0109836
-0.131508
0.0106666
0.0296264
-0.192457
-0.70393
-0.220832
-0.0501608
0.0455286
0.0810643
-0.731509
0.0812532
-0.152865
-0.00574482
0.0556529
0.0749032
-0.462211
-0.0481735
-0.150406
0.0902125
0.231378
0.165755
0.152916
-0.054683
-0.119035
-1.00977
-0.0994153
-0.438692
0.0193383
-0.0886824
0.165497
-0.00593881
-0.299657
0.00667806
-0.352774
0.264758
0.341762
0.077913
0.0429783
0.0429594
-0.409056
0.128016
-0.443164
-0.010595
-0.13982
-0.0530456
-0.289582
-0.115547
-0.0783654
0.263963
0.0271243
0.331622
-0.0812269
0.185279
-0.00554098
0.119808
-0.0339748
-0.0316148
0.0402194
-0.000873005
0.0287728
0.0540459
0.266153
-0.201788
0.0466304
-0.190928
-0.403958
-0.116668
-0.266534
0.286639
0.0511227
0.182369
0.0136568
0.305109
0.0981124
0.40958
-0.343159
-0.113944
0.192662
0.313119
-0.532516
-0.12677
-0.302871
0.0420727
0.387691
-0.228075
-0.0813905
0.055465
-0.461863
0.0281456
-0.303544
-0.00264032
0.0298394
0.00857664
-0.248503
-0.0758217
0.0381215
0.206758
0.145876
-0.264666
-0.410621
0.0269649
0.0364165
-0.0170809
0.260105
0.00196944
0.085821
0.0496394
-0.238811
-0.0341779
0.118458
0.183966
0.264865
0.212774
0.182797
0.0931713
-0.0611596
0.140967
0.140265
0.155737
0.204032
-0.116929
-0.590869
-0.120925
-0.450438
0.174728
-0.437338
-0.568483
0.0338961
-0.49481
-0.0134206
-0.167733
0.223553
0.0837245
0.197512
0.198426
-0.115084
-0.505461
0.0409792
0.0929542
0.280526
0.17882
0.0432955
0.0967936
0.146282
0.143836
0.153694
0.0369025
0.168757
0.0849521
0.226764
0.283169
0.127745
0.281597
0.327372
0.234189
0.233464
0.125518
-0.26912
0.169871
0.151988
-0.00121929
0.0825518
0.12944
0.213098
0.0687678
-0.306956
-0.178524
0.100746
-0.135046
-0.0661094
-0.430106
-0.064794
-0.236342
0.00576276
-0.060637
-0.603495
-0.26276
0.0125322
-0.176564
0.171486
-0.246583
0.0846269
0.139179
-0.348745
-0.0714696
-0.190687
0.195532
0.208693
0.239908
-0.101755
-0.332941
0.0679858
0.152222
0.449895
0.175532
-0.216079
-0.0266728
0.0660281
0.0798239
0.251809
0.0852557
-0.271666
-0.300501
0.0964383
-0.0892671
-0.0744192
-0.142191
0.0445892
0.259454
0.0380608
-0.600324
-0.140336
0.152847
0.370415
0.0222824
0.0603363
-0.228783
-0.0914739
-0.00737863
0.231599
0.311032
-0.0125638
0.218194
-0.153885
-0.371294
-0.256935
0.00935471
-0.221884
-1.02144
-0.0310133
-0.373373
-0.0408147
0.185662
0.204042
-0.233646
0.0929047
0.0330149
0.0890588
0.176503
0.0789382
-0.600368
-0.232117
0.195138
0.495086
0.126928
0.108656
0.0892119
0.192511
0.0699056
-0.110523
0.0813196
0.0196116
0.227151
-0.284676
-0.224316
-0.0450619
-0.390922
0.0189917
0.248638
0.00588223
0.242082
-0.134698
0.0552891
0.207676
0.109361
0.116934
0.228963
-0.0327736
0.00999992
0.17233
0.162684
0.182338
0.100089
0.0559759
-0.0937554
-0.126878
0.00257022
-0.0917339
-0.108269
0.242687
0.272485
-0.163897
0.299194
0.120494
0.322234
0.207994
0.263428
0.168579
-0.283953
-0.112057
-0.415236
-0.201061
-0.523106
0.01058
0.136605
0.152869
-0.333915
0.138522
-0.565569
-0.13665
-0.309108
-0.0375485
-0.0382594
0.205616
0.0603754
0.113422
0.0782651
0.0745797
0.0914424
0.0795169
0.282836
0.173039
-0.343353
0.0831867
-0.334386
0.312952
0.0818175
0.331805
-0.228302
0.310282
0.229346
0.0960759
0.13367
-0.0732857
-0.479865
0.180203
0.103249
0.212972
0.274974
0.0316769
-0.223949
-0.0370355
-0.377648
-0.164824
-0.253126
-0.241636
0.202299
-0.369727
0.359471
-0.0760255
0.374885
-0.0421061
0.156114
-0.388546
-0.395803
-0.217052
-0.262953
-0.48464
0.140163
0.0837366
-0.54475
-0.308514
0.284557
0.29188
0.316701
0.121995
-0.798272
0.0237618
0.247624
0.220205
-0.281904
0.175865
0.220698
0.226822
-0.114427
-0.19885
0.249001
0.416754
0.057414
-0.42544
-0.71909
-0.0853164
0.389026
-0.0331599
-0.198914
0.0089588
-0.579547
-0.0547034
0.10079
-0.150711
0.0598196
-0.103165
-0.0604958
-0.407902
0.349032
-0.0797578
0.223066
0.16442
-0.266969
0.0231148
-0.524683
0.158125
-0.0527748
-0.033277
0.0704877
-0.25501
-0.0672067
-0.23875
-0.232093
0.130573
-0.27765
-0.319287
-0.00252859
-0.0414323
0.000354406
-0.0477651
-0.0447365
0.0337879
-0.0221728
-0.00324443
0.108478
-0.04502
-0.135135
0.178954
-0.138418
-0.109421
-0.0682227
0.220659
0.11986
0.0286683
0.0897905
-0.218136
-0.423674
0.277665
-0.338984
-0.534148
-0.319331
0.0355166
0.0285448
0.0863134
-0.230637
-0.0220852
-0.409452
-0.14232
0.0216794
-0.00259653
0.000224351
-0.0113295
0.0484971
-0.197557
0.0812048
0.0483982
0.0882119
-0.0673832
-0.0761532
-0.39304
-0.375345
-0.344216
0.270809
0.445502
0.181514
0.089453
-0.0377611
-0.104415
-0.124378
-0.230762
0.146195
0.14506
0.15015
-0.0669096
0.157117
-0.126288
-0.383686
-0.54584
0.0449212
-0.811586
-0.0214199
-0.402129
-0.593685
0.192304
-0.434794
0.320724
0.146777
0.367992
0.147629
0.3015
0.127653
-0.316937
0.0442927
-0.145802
-0.296219
-0.242954
0.489695
0.114075
0.136955
0.205972
0.0400291
-0.237141
-0.461192
0.0797758
-0.0899609
0.316743
0.214088
-0.0964466
0.207935
-0.0303175
-0.311878
-0.300388
0.1955
-0.286776
-0.548844
-0.164502
-0.269254
-0.320464
-0.0736257
-0.399359
0.227208
-0.114204
0.142963
0.252204
-0.0256378
0.142651
0.168618
-0.648454
-0.30509
-0.0834333
0.0309886
-0.0375566
-0.0803507
-0.0190777
0.023257
-0.230986
-0.0482118
-0.0191108
0.00742698
0.296339
0.0637087
0.191992
-0.407657
-0.04176
-0.0117863
0.268525
0.175816
0.461836
-0.436499
0.0725354
-0.160182
0.223559
0.337989
0.127396
0.25585
0.0811736
0.280213
0.157742
-0.153244
0.0708515
0.100952
0.112084
0.168141
-0.00623259
-0.477168
0.108099
0.143395
0.294115
0.0100117
0.00134985
-0.0376864
-0.36735
-0.0683925
0.120502
0.120542
-0.267499
0.133572
-0.101518
0.0604319
0.125707
0.174158
0.0134254
-0.766454
0.112144
0.410833
0.185958
-0.688452
-0.328137
-0.36194
0.137904
-0.336356
0.140986
0.0675189
-0.3246
-0.389817
-0.361553
0.266647
0.296653
0.0921658
-0.77553
0.206974
-0.201169
0.0736827
-0.175414
-0.107458
0.0437663
-0.450987
0.125536
-0.245266
-0.484992
-0.44699
-0.292171
-0.29869
-0.0844299
0.149576
-0.486816
-0.274801
-0.405272
-0.587831
-0.717687
0.0271423
-0.478705
-1.0727
-0.128204
0.244136
0.0172171
0.182698
0.0774546
-0.251812
-0.0874176
-0.052621
0.0767248
-0.0827458
-0.129591
-0.421933
-0.0283779
-0.346573
-0.17772
-0.481433
0.230951
0.204979
0.124594
0.0170774
-0.284088
0.065953
0.00555724
0.0604367
0.127076
-0.549596
-0.0594446
0.0687205
0.0614647
0.203246
-0.53686
-0.351008
-0.057802
0.165121
-0.0763712
0.103669
-0.428548
0.425422
0.0550774
0.0288922
0.0179483
0.0753608
0.0496483
0.108715
-0.0136325
-0.0825267
-0.0210549
0.165162
-0.529282
0.0405207
-0.125709
0.104883
-0.283707
-0.00765697
-0.0910201
-0.353619
-0.4307
-0.239555
0.101327
-0.313996
0.180077
-0.182752
0.164359
0.382349
0.132558
-0.0637661
-0.225189
-0.292899
-0.0608433
-0.0433182
0.0186936
0.226581
0.362375
0.046993
0.32131
0.299722
-0.0413551
-0.306821
-0.0772784
-0.279558
-0.490217
0.0733944
-0.0319617
-0.201439
0.224167
0.015503
0.150935
0.152694
0.132257
0.229903
0.2555
0.218611
0.217267
0.0772274
-0.366661
0.0666182
0.292215
0.141324
0.146817
-0.16661
0.174617
0.141879
-0.158388
-0.240815
0.170855
0.0366037
-0.173774
0.137868
-0.0450274
-0.265368
0.112799
-0.25492
-0.830516
-0.00371134
0.199343
0.273213
0.153786
0.336974
-0.181554
-0.348267
0.219542
0.350923
0.475592
-0.155501
-0.714755
0.0318956
0.1791
0.142749
0.300954
0.179506
0.175964
0.144522
0.102422
-0.163267
0.179443
-0.0787664
-0.0662595
0.0780158
-0.0723821
0.14565
0.143036
-0.129809
0.0400973
-0.488992
-0.143935
-0.065509
-0.11026
-0.0527625
0.122311
-0.0210867
0.239552
0.0488108
0.119011
0.200675
0.0580287
0.237181
0.182501
0.0510589
-0.482841
0.440239
0.143524
0.233392
0.248675
-0.293494
0.186093
-0.172829
-0.264839
0.118795
0.255378
0.363869
0.0118965
0.103805
0.218482
-0.306324
0.406008
-0.0433232
-0.217418
-0.497226
0.168209
0.24865
-0.398198
0.335504
-0.511453
-0.390238
0.0359456
-0.376807
0.0193089
-0.332553
-0.529912
0.113834
-0.380778
0.421242
0.219059
0.172261
0.0348034
-0.421129
-0.0826525
-0.410492
0.0410986
0.0830505
0.121041
0.0777159
0.101082
0.253478
0.144959
0.242451
0.169484
-0.0196901
0.0554029
0.0351417
0.000339991
-0.0516574
0.071376
-0.026058
0.0515798
0.210281
-0.0167566
-0.115332
-0.0622797
-0.37617
0.115937
-0.165179
0.314953
-0.355296
0.221307
0.0289897
0.239438
-0.318975
0.0933839
0.0123317
0.126428
0.0701343
0.0485263
-0.00190834
-0.0781597
-0.0707853
-0.458229
0.0288194
0.101015
0.127281
0.00148234
0.103602
0.0448683
0.19527
-0.0819919
0.100379
-0.0344646
-0.0404115
-0.212973
-0.446069
0.163519
-0.265074
-0.0161765
0.326145
0.00879912
-0.471827
-0.280389
0.227848
-0.551211
0.0167724
0.0424255
-0.180507
-0.302158
0.0680718
-0.41079
-0.376042
0.0851853
-0.0991507
0.203413
0.178411
-0.0586313
0.0320536
-0.125557
-0.777519
0.0271957
0.347066
0.151062
-0.120812
-0.141245
0.00427357
-0.0384717
-0.0257828
-0.157465
-0.10679
-0.546815
0.0565238
-0.144836
-0.115434
0.0177628
0.166249
0.0900503
-0.0407554
-0.201122
-0.0139677
0.0392239
-0.0754754
0.0702673
0.044755
-0.399288
-0.0448555
0.0137059
0.189096
-0.0856364
0.226723
0.231385
-0.367304
-0.0691065
-0.155492
-0.100539
0.023538
-0.0154529
0.260946
0.135896
0.317785
0.0482238
0.0355175
0.0672775
-0.195678
-0.211497
-0.549948
-0.180061
-0.260221
-0.390529
-0.331588
0.20831
0.102937
0.000613748
-0.0733532
-0.12588
-0.253783
0.203416
0.127769
0.162938
0.0433182
0.153896
0.206675
-0.295233
-0.41885
-0.361316
-0.0157743
-0.0392414
0.074777
-0.0934696
-0.0348041
0.151006
0.0669488
-0.124557
0.0917047
-0.182471
-0.0975262
0.073708
0.145293
0.188439
0.223262
0.0601815
-0.480497
0.00193825
0.128401
0.211575
-0.174092
0.295618
-0.299649
-0.371058
-0.455705
0.0271279
0.188513
-0.266449
0.0286883
-0.338424
-0.0639051
-0.0549993
-0.482454
-0.115783
0.335639
0.27962
0.064627
-0.39587
-0.106811
-0.094315
-0.287171
-0.436625
0.140655
0.176215
0.222804
0.388248
-0.0411728
-0.460364
0.0952759
-0.0483204
0.0550451
0.18481
-0.394233
-0.113007
-0.360898
-0.197683
-0.0211632
0.211627
0.346746
0.244183
0.270349
-0.0381166
-0.458756
0.35414
-0.0919682
0.224907
-0.00436757
0.238716
0.160706
-0.0764936
-0.116554
0.0762283
-0.127746
-0.137327
-0.201838
0.287449
0.117208
0.274541
0.0759131
-0.19505
-0.2581
-0.364559
-0.266312
0.198091
-0.0438743
-0.0297326
0.033149
0.0264383
0.388623
-0.122528
0.220585
-0.147286
0.0305334
0.0496565
-0.296745
0.338532
-0.0126458
-0.0513205
-0.0681666
-0.00662114
0.0831439
0.00156978
-0.0221923
-0.0249234
0.107035
-0.138932
-0.0619139
0.032078
0.136444
-0.118853
-0.584175
-0.111465
0.0568373
0.22746
0.195532
-0.00839829
0.0388656
0.00414435
-0.102197
0.105104
-0.366301
-0.304967
-0.387685
-0.164921
0.0618725
-0.0597271
-0.0170114
-0.0634094
-0.107731
0.128742
0.244458
-0.0016675
0.183166
-0.130731
0.153657
-0.0354181
-0.00175061
0.032229
0.410283
0.238038
-0.27383
-0.324837
0.232392
0.133218
-0.124317
0.107838
0.364843
0.0517808
0.200678
-0.547697
-0.656431
0.0770886
0.0247914
0.183809
0.30827
0.311669
0.071306
-0.168953
-0.110161
0.105933
0.317836
0.134245
-0.00620779
-0.150948
-0.486897
-0.275911
-0.539542
-0.382801
0.233375
0.0888583
0.363769
-0.0771497
-0.144015
-0.164817
-0.545397
0.00824574
0.333659
0.0179144
-0.356065
-0.60167
-0.213301
-0.0131957
-0.190555
-0.244192
0.0366035
-0.313587
-0.253094
-0.329491
-0.173874