# vtk DataFile Version 2.0
Saved using mVTK
ASCII
DATASET POLYDATA
POINTS 642 float
100.000000 0.000000 0.000000
44.720000 -85.070000 -27.640000
44.720000 0.000000 -89.440000
44.720000 85.070000 -27.640000
44.720000 52.570000 72.360000
44.720000 -52.570000 72.360000
-44.720000 -85.070000 27.640000
-44.720000 -52.570000 -72.360000
-44.720000 52.570000 -72.360000
-44.720000 85.070000 27.640000
-44.720000 0.000000 89.440000
-100.000000 0.000000 -0.000000
85.070000 30.900000 42.530000
52.570000 80.900000 26.290000
85.070000 50.000000 -16.250000
85.070000 -30.900000 42.530000
52.570000 0.000000 85.070000
85.070000 -50.000000 -16.250000
52.570000 -80.900000 26.290000
85.070000 0.000000 -52.570000
52.570000 -50.000000 -68.820000
52.570000 50.000000 -68.820000
0.000000 80.900000 -58.780000
0.000000 30.900000 -95.110000
0.000000 100.000000 0.000000
-52.570000 80.900000 -26.290000
-0.000000 80.900000 58.780000
-0.000000 30.900000 95.110000
-52.570000 50.000000 68.820000
-0.000000 -30.900000 95.110000
-0.000000 -80.900000 58.780000
-52.570000 -50.000000 68.820000
0.000000 -100.000000 0.000000
0.000000 -80.900000 -58.780000
-52.570000 -80.900000 -26.290000
0.000000 -30.900000 -95.110000
-52.570000 0.000000 -85.070000
-85.070000 50.000000 16.250000
-85.070000 30.900000 -42.530000
-85.070000 0.000000 52.570000
-85.070000 -50.000000 16.250000
-85.070000 -30.900000 -42.530000
96.190000 16.060000 22.110000
89.440000 42.530000 13.820000
96.190000 25.990000 -8.440000
96.190000 -16.060000 22.110000
89.440000 0.000000 44.720000
96.190000 -25.990000 -8.440000
89.440000 -42.530000 13.820000
96.190000 0.000000 -27.330000
89.440000 -26.290000 -36.180000
89.440000 26.290000 -36.180000
23.250000 86.270000 -44.920000
27.640000 68.820000 -67.080000
50.570000 70.200000 -50.140000
23.250000 96.190000 -14.370000
0.000000 95.110000 -30.900000
50.570000 86.270000 -0.700000
27.640000 95.110000 13.820000
23.250000 43.390000 87.050000
-0.000000 58.780000 80.900000
23.250000 69.380000 68.160000
50.570000 27.330000 81.830000
27.640000 16.250000 94.720000
23.250000 -69.380000 68.160000
-0.000000 -58.780000 80.900000
23.250000 -43.390000 87.050000
50.570000 -69.380000 51.280000
27.640000 -85.070000 44.720000
23.250000 -86.270000 -44.920000
0.000000 -95.110000 -30.900000
23.250000 -96.190000 -14.370000
50.570000 -70.200000 -50.140000
27.640000 -68.820000 -67.080000
23.250000 16.060000 -95.930000
0.000000 0.000000 -100.000000
23.250000 -16.060000 -95.930000
-50.570000 69.380000 -51.280000
-72.360000 58.780000 -36.180000
-67.460000 43.390000 -59.720000
-50.570000 70.200000 50.140000
-72.360000 52.570000 44.720000
-67.460000 70.200000 22.810000
-50.570000 -25.990000 82.260000
-72.360000 -26.290000 63.820000
-67.460000 0.000000 73.820000
-50.570000 -86.270000 0.700000
-72.360000 -68.820000 -5.280000
-67.460000 -70.200000 22.810000
-50.570000 -27.330000 -81.830000
-72.360000 -16.250000 -67.080000
-67.460000 -43.390000 -59.720000
67.460000 43.390000 59.720000
50.570000 69.380000 51.280000
72.360000 58.780000 36.180000
72.360000 68.820000 5.280000
67.460000 70.200000 -22.810000
67.460000 -43.390000 59.720000
50.570000 -27.330000 81.830000
72.360000 -16.250000 67.080000
72.360000 16.250000 67.080000
67.460000 -70.200000 -22.810000
50.570000 -86.270000 -0.700000
72.360000 -68.820000 5.280000
72.360000 -58.780000 36.180000
67.460000 0.000000 -73.820000
50.570000 -25.990000 -82.260000
72.360000 -26.290000 -63.820000
72.360000 -52.570000 -44.720000
72.360000 52.570000 -44.720000
72.360000 26.290000 -63.820000
50.570000 25.990000 -82.260000
-23.250000 69.380000 -68.160000
-23.250000 43.390000 -87.050000
0.000000 58.780000 -80.900000
27.640000 42.530000 -86.180000
-23.250000 96.190000 14.370000
-50.570000 86.270000 0.700000
-27.640000 95.110000 -13.820000
-27.640000 85.070000 -44.720000
27.640000 85.070000 44.720000
-0.000000 95.110000 30.900000
-23.250000 86.270000 44.920000
-23.250000 16.060000 95.930000
-50.570000 25.990000 82.260000
-27.640000 42.530000 86.180000
-27.640000 68.820000 67.080000
27.640000 -16.250000 94.720000
-0.000000 0.000000 100.000000
-23.250000 -16.060000 95.930000
-23.250000 -86.270000 44.920000
-50.570000 -70.200000 50.140000
-27.640000 -68.820000 67.080000
-27.640000 -42.530000 86.180000
27.640000 -95.110000 13.820000
-0.000000 -95.110000 30.900000
-23.250000 -96.190000 14.370000
-23.250000 -69.380000 -68.160000
-50.570000 -69.380000 -51.280000
-27.640000 -85.070000 -44.720000
-27.640000 -95.110000 -13.820000
27.640000 -42.530000 -86.180000
0.000000 -58.780000 -80.900000
-23.250000 -43.390000 -87.050000
-50.570000 27.330000 -81.830000
-27.640000 16.250000 -94.720000
-27.640000 -16.250000 -94.720000
-72.360000 68.820000 -5.280000
-89.440000 42.530000 -13.820000
-96.190000 25.990000 8.440000
-96.190000 16.060000 -22.110000
-72.360000 26.290000 63.820000
-89.440000 26.290000 36.180000
-96.190000 0.000000 27.330000
-72.360000 -52.570000 44.720000
-89.440000 -26.290000 36.180000
-96.190000 -25.990000 8.440000
-72.360000 -58.780000 -36.180000
-89.440000 -42.530000 -13.820000
-96.190000 -16.060000 -22.110000
-72.360000 16.250000 -67.080000
-89.440000 0.000000 -44.720000
99.040000 8.110000 11.160000
97.460000 21.300000 6.920000
99.040000 13.120000 -4.260000
99.040000 -8.110000 11.160000
97.460000 0.000000 22.400000
99.040000 -13.120000 -4.260000
97.460000 -21.300000 6.920000
99.040000 0.000000 -13.800000
97.460000 -13.170000 -18.120000
97.460000 13.170000 -18.120000
34.310000 86.490000 -36.630000
37.390000 79.260000 -48.150000
48.110000 78.380000 -39.260000
34.310000 91.500000 -21.210000
23.550000 92.430000 -30.030000
48.110000 86.490000 -14.310000
37.390000 92.430000 -7.630000
34.310000 48.440000 80.470000
23.550000 57.130000 78.630000
34.310000 61.560000 70.940000
48.110000 40.340000 77.840000
37.390000 35.820000 85.550000
34.310000 -61.560000 70.940000
23.550000 -57.130000 78.630000
34.310000 -48.440000 80.470000
48.110000 -61.560000 62.410000
37.390000 -70.290000 60.510000
34.310000 -86.490000 -36.630000
23.550000 -92.430000 -30.030000
34.310000 -91.500000 -21.210000
48.110000 -78.380000 -39.260000
37.390000 -79.260000 -48.150000
34.310000 8.110000 -93.580000
23.550000 0.000000 -97.190000
34.310000 -8.110000 -93.580000
-48.110000 61.560000 -62.410000
-59.790000 57.130000 -56.230000
-56.630000 48.440000 -66.680000
-48.110000 78.380000 39.260000
-59.790000 71.130000 36.950000
-56.630000 78.380000 25.470000
-48.110000 -13.120000 86.680000
-59.790000 -13.170000 79.070000
-56.630000 0.000000 82.420000
-48.110000 -86.490000 14.310000
-59.790000 -79.260000 11.910000
-56.630000 -78.380000 25.470000
-48.110000 -40.340000 -77.840000
-59.790000 -35.820000 -71.700000
-56.630000 -48.440000 -66.680000
77.000000 37.500000 51.620000
70.630000 51.610000 48.450000
79.690000 45.400000 39.850000
88.340000 46.840000 -1.230000
81.990000 56.430000 9.680000
79.690000 60.150000 -5.550000
70.630000 70.230000 -8.860000
77.000000 60.680000 -19.720000
77.000000 -37.500000 51.620000
70.630000 -30.130000 64.060000
79.690000 -23.870000 55.490000
88.340000 15.640000 44.170000
81.990000 8.230000 56.650000
79.690000 23.870000 55.490000
70.630000 30.130000 64.060000
77.000000 -60.680000 -19.720000
70.630000 -70.230000 -8.860000
79.690000 -60.150000 -5.550000
88.340000 -37.170000 28.530000
81.990000 -51.340000 25.340000
79.690000 -45.400000 39.850000
70.630000 -51.610000 48.450000
77.000000 0.000000 -63.810000
70.630000 -13.280000 -69.530000
79.690000 -13.310000 -58.920000
88.340000 -38.620000 -26.540000
81.990000 -39.960000 -41.000000
79.690000 -51.930000 -30.860000
70.630000 -62.020000 -34.120000
70.630000 62.020000 -34.120000
79.690000 51.930000 -30.860000
88.340000 13.310000 -44.930000
81.990000 26.640000 -50.670000
79.690000 13.310000 -58.920000
70.630000 13.280000 -69.530000
-11.730000 75.870000 -64.080000
-11.740000 64.740000 -75.300000
0.000000 70.710000 -70.710000
40.610000 60.150000 -68.800000
28.010000 56.430000 -77.660000
40.610000 46.840000 -78.470000
39.510000 34.620000 -85.090000
52.070000 38.360000 -76.270000
-11.730000 99.040000 7.250000
-25.710000 96.640000 0.280000
-13.990000 98.770000 -7.000000
0.000000 89.100000 -45.400000
-14.010000 91.300000 -38.320000
-13.990000 84.020000 -52.390000
-25.710000 78.020000 -57.030000
52.070000 75.870000 39.160000
39.510000 78.020000 48.490000
40.610000 84.020000 35.950000
13.990000 98.770000 7.000000
14.010000 96.390000 22.660000
-0.000000 98.770000 15.640000
-11.740000 96.640000 22.870000
-11.730000 23.710000 96.440000
-25.710000 29.600000 91.990000
-13.990000 37.170000 91.770000
-0.000000 70.710000 70.710000
-14.010000 64.660000 74.990000
-13.990000 75.790000 63.710000
-25.710000 78.350000 56.580000
-11.730000 84.390000 52.350000
52.070000 -13.800000 84.250000
39.510000 -22.010000 89.190000
40.610000 -8.220000 91.010000
13.990000 23.870000 96.100000
14.010000 8.230000 98.670000
-0.000000 15.640000 98.770000
-11.740000 8.110000 98.980000
-11.730000 -84.390000 52.350000
-25.710000 -78.350000 56.580000
-13.990000 -75.790000 63.710000
-0.000000 -45.400000 89.100000
-14.010000 -51.340000 84.670000
-13.990000 -37.170000 91.770000
-25.710000 -29.600000 91.990000
-11.730000 -23.710000 96.440000
52.070000 -84.390000 12.920000
39.510000 -91.620000 6.630000
40.610000 -89.100000 20.300000
13.990000 -84.020000 52.390000
14.010000 -91.300000 38.320000
-0.000000 -89.100000 45.400000
-11.740000 -91.620000 38.300000
-11.730000 -75.870000 -64.080000
-25.710000 -78.020000 -57.030000
-13.990000 -84.020000 -52.400000
0.000000 -98.770000 -15.640000
-14.010000 -96.390000 -22.660000
-13.990000 -98.770000 -7.000000
-25.710000 -96.640000 0.280000
-11.730000 -99.040000 7.250000
52.070000 -38.360000 -76.270000
39.510000 -34.620000 -85.090000
40.610000 -46.840000 -78.470000
13.990000 -75.790000 -63.710000
14.010000 -64.660000 -74.990000
0.000000 -70.710000 -70.710000
-11.740000 -64.740000 -75.300000
-11.730000 37.500000 -91.960000
-25.710000 30.130000 -91.820000
-13.990000 23.870000 -96.100000
0.000000 -15.640000 -98.770000
[...]
POINT_DATA 642
SCALARS curv float 1
LOOKUP_TABLE default
0.220844
0.292427
0.271743
0.188563
-0.502084
0.165685
-0.370401
0.324659
0.002497
0.050272
-0.188513
-0.932905
0.112559
-0.074215
0.130783
-0.151676
-0.195945
0.329353
0.148557
-0.128213
-0.069957
-0.158984
-0.364564
-0.005294
0.119140
0.063713
-0.427040
0.285156
0.028498
-0.262507
-0.238485
-0.246257
-0.006175
-0.059048
-0.298133
-0.038086
0.088718
-0.079426
0.004829
0.063294
0.203849
0.106342
0.179179
-0.131623
-0.250586
-0.137654
0.062829
-0.367278
0.118818
0.237406
-0.516729
0.076803
-0.167761
-0.220661
-0.017671
0.320195
-0.773656
0.145854
0.197240
0.122563
0.079934
0.269421
-0.877862
-0.369374
0.043704
0.126428
0.388946
0.146996
0.234106
-0.486472
-0.108233
-0.047936
0.186707
0.212412
-0.000584
-0.002115
-0.137380
-0.094369
-0.481277
0.005535
0.016485
0.049995
0.061564
0.190443
-0.014130
0.012358
-0.396429
-0.020506
-0.448582
-0.113070
0.057697
-0.517077
-0.026732
-0.273407
-0.446224
0.069357
0.224969
0.146894
-0.010118
0.045792
-0.053971
-0.167329
0.217969
0.091468
0.188706
-0.239121
0.048941
0.061127
0.026669
-0.450869
-0.048253
-0.007201
0.366806
-0.000902
-0.025252
0.279801
0.202623
0.054357
-0.237334
-0.522315
0.167953
-0.586620
0.138094
0.131340
-0.351489
0.020226
0.217280
-0.014460
0.172471
-0.274297
-0.312773
-0.187138
0.131717
0.246343
0.179316
-0.661973
-0.515915
-0.204762
0.166128
-0.131588
-0.222619
0.033197
0.120640
0.105320
0.017780
0.027101
0.205532
-0.172513
0.104380
-0.191367
0.055219
-0.068261
-0.130852
0.233135
0.118182
-0.075431
-0.149036
0.190573
-0.116673
0.177560
-0.163107
-0.421798
0.151363
0.013614
-0.421263
0.137785
-0.019513
0.094219
-0.267170
0.244948
-0.037199
0.040349
0.226319
-0.261668
0.050599
-0.213486
-0.063808
-0.257269
0.226481
-0.050053
0.391712
0.019010
0.161060
-0.308320
-0.065677
0.026093
-0.046556
-0.091382
-0.472462
0.237403
-0.516792
-0.077191
-0.195598
-0.580973
0.354415
-0.280414
0.033203
-0.211895
0.033786
0.121065
0.241893
0.039190
0.042949
0.051520
0.009802
-0.239530
-0.243584
0.025529
-0.498031
0.127023
0.133620
0.038302
0.193863
0.012170
0.019388
0.018680
0.321914
-0.304644
-0.360660
0.179687
0.286754
0.433994
0.016996
0.023375
0.093382
0.063938
0.020232
-0.112001
0.073074
-0.229426
-0.293825
-0.052894
-0.024389
0.042307
-0.072804
0.007201
0.045808
-0.100323
-0.299136
0.068089
0.098861
0.318030
0.007821
-0.371764
-0.313706
0.108491
0.059692
-0.161899
-0.259057
0.122712
0.037892
-0.318831
-0.313464
0.315821
0.230828
0.276680
-0.328870
-0.160325
0.162657
-0.181338
0.525493
0.142667
0.258243
0.211857
0.092644
-0.050783
-0.448049
-0.228860
0.221345
0.140507
0.129788
0.026702
-0.014569
0.048993
-0.132504
0.118270
0.346113
0.174293
-0.556690
-0.516032
-0.095415
0.059803
0.189700
0.134704
0.127576
0.214851
-0.042856
-0.242507
0.046352
0.086617
-0.263007
-0.177537
-0.108047
0.291394
-0.134239
0.308525
0.056273
-0.019264
-0.202074
-0.024636
0.066410
-0.046180
0.421358
0.190179
-0.527922
0.220211
0.239851
0.212991
-0.312777
-0.077665
-0.008186
0.045319
0.077352
0.405015
-0.056374
0.000111
-0.003577
-0.118386
0.292126
-0.131687
-0.181293
-0.363595
0.144703
0.167587
0.406705
-0.062977
0.096555
0.097312
-0.018149
0.203944
0.199358
-0.126870
0.282101
-0.036125
0.176827
0.194007
0.166986
-0.104357
0.061380
0.162513
-0.246542
-0.195647
-0.128763
-0.423800
0.309438
-0.169965
-0.207787
-0.036813
0.160731
0.058411
-0.427977
-0.073235
-0.076147
0.033693
0.055236
-0.109961
-0.167700
-0.003362
-0.286768
-0.003123
-0.175304
0.051604
0.176801
-0.017921
0.081382
-0.573020
0.094585
-0.286343
0.115292
-0.258912
-0.043718
0.196097
0.275463
-0.009648
0.214867
0.080953
-0.040237
0.005447
-0.617440
0.179177
0.270929
0.006410
-0.282042
0.169498
-0.142796
-0.040037
0.181001
-0.527055
0.062814
0.241811
-0.384658
-0.181234
0.132082
0.099531
0.242668
0.246111
0.149615
-0.108814
-0.309669
0.159782
-0.110633
0.178304
0.309824
-0.334780
-0.056949
0.151361
0.034548
-0.098828
0.072696
0.240619
0.022531
0.231853
-0.330300
0.158151
-0.056853
0.160306
-0.326421
-0.737546
0.147945
0.023725
-0.002354
-0.337744
-0.036443
-0.044520
0.085911
-0.055813
0.132829
-0.125356
-0.239398
0.302909
0.125526
0.020767
0.093120
0.199804
-0.054030
0.022035
-0.032867
0.301578
-0.242107
0.277869
0.282596
0.038117
0.154726
0.082635
0.304233
-0.602427
-0.027676
0.194335
0.214196
0.082589
-0.297436
0.175102
0.087966
0.082010
-0.406202
0.139405
-0.280563
0.312059
-0.194582
0.180446
-0.352300
0.142144
0.225193
0.061767
0.202554
-0.345727
0.193564
0.021415
-0.100119
-0.082046
0.084934
-0.367652
0.139509
0.008437
-0.131284
-0.221214
-0.090722
0.098866
-0.165594
-0.122087
0.216640
-0.207686
0.270887
-0.046946
0.051263
0.126398
0.212308
0.120639
0.343320
0.063058
-0.087414
-0.148281
-0.079250
0.038261
-0.225633
-0.203057
-0.175031
0.109690
-0.465947
-0.406524
0.201672
-0.009284
0.042338
-0.031840
0.080365
-0.495934
-0.060540
-0.106752
-0.181013
-0.205597
-0.032967
0.161780
-0.011258
0.020472
0.108470
0.085715
-0.034858
-0.609363
0.322669
-0.453302
-0.297093
-0.090265
0.158150
-0.300356
0.145719
0.166178
0.218558
-0.316805
-0.291208
0.096780
-0.186123
-0.212313
0.132905
0.242143
0.173275
-0.002699
-0.159381
0.128234
0.008039
0.314536
-0.082614
-0.236460
-0.491373
-0.067499
-0.070270
0.177221
0.036688
-0.003151
0.043043
0.030277
-0.333051
0.179769
-0.022087
-0.456867
-0.191008
0.046795
-0.120994
-0.028175
0.018849
0.049281
0.190338
0.218861
-0.575136
0.264190
0.252239
-0.056986
-0.034311
0.007431
-0.181243
0.420143
0.177906
-0.208694
0.221892
0.181365
0.094277
0.079988
-0.379854
-0.201259
0.462111
-0.262934
0.221198
0.335090
-0.023049
-0.083134
-0.343341
-0.073907
-0.054684
0.514745
-0.002684
0.001583
0.040578
-0.055344
-0.009691
-0.040714
-0.158622
-0.081435
-0.112613
-0.029933
-0.262889
0.246970
0.301390
-0.442959
0.037637
0.119442
-0.092574
-0.175958
0.013637
-0.006775
-0.308019
-0.178957
0.110112
0.090151
0.135303
-0.026608
0.007135
0.322777
-0.032388
0.302517
-0.570532
0.198242
0.165661
-0.364701
0.076261
-0.757930
-0.012726
-0.310039
-0.285222
-0.225817
0.390279
0.264723
-0.007271
-0.065366
0.042321
0.063762
-0.174195
-0.087446
0.042460
-0.031749
0.022586
0.216933
-0.454492
0.113482
SCALARS sulc float 1
LOOKUP_TABLE default
0.784931
-0.013782
1.041900
0.648413
-1.015590
0.048605
-0.490678
1.337670
-0.239955
-0.187670
-0.179716
-1.167900
0.790672
-0.358978
0.829307
0.257001
0.069570
0.009565
0.693574
-0.754293
-0.150922
-0.161000
-0.463046
-0.349948
0.785186
-0.129882
-0.324808
0.899953
0.680717
-0.735173
-0.316344
-0.157972
0.239211
-0.113228
-0.799312
0.010152
-0.153139
-0.409852
0.094959
0.039984
0.236249
1.146950
1.058710
-0.317697
-0.593018
-0.211469
0.030051
-0.591852
-0.028925
0.390634
-1.220550
-0.295500
-0.850462
-0.179570
-0.474245
0.874813
-0.873407
0.720503
-0.259664
-0.042235
0.113940
0.471194
-0.967372
-0.618848
-0.072697
0.503768
-0.147006
0.503361
-0.272313
-0.562138
-0.862731
-0.342150
-0.531309
-0.086352
-0.103539
-0.242049
-0.160215
-0.537949
-0.581383
-0.620247
1.105610
0.217854
0.186453
0.807402
-0.096534
0.219420
-0.827385
0.247305
-0.901391
0.068319
0.446939
0.163629
0.404006
0.178813
-0.531119
0.086698
0.660312
0.912807
-0.015436
0.474736
0.006012
-0.712684
0.227786
0.243703
1.184570
-0.143383
0.732209
0.486549
-0.746704
-0.888227
-0.508139
0.202573
0.690497
-0.343269
0.284697
0.762440
0.586142
-0.161103
-0.323847
-1.256220
0.780840
-0.625623
0.227631
1.355520
0.266541
1.376290
0.873293
-0.402108
1.145290
-0.501252
0.138208
0.228070
0.842913
0.448729
0.495683
-0.756132
-0.708874
0.222311
-0.093090
-0.281410
-0.684712
0.145188
0.523082
0.491520
-0.725893
-0.496765
-0.185612
-0.433489
0.009014
-1.068440
-0.122590
-0.175232
-0.743457
-0.340073
0.225850
-0.184549
-0.045714
0.178164
0.188248
0.950454
-0.089463
-0.122302
0.843886
0.506798
-0.160239
0.636384
0.248844
0.389067
-0.174424
0.673668
-0.280801
-0.061291
0.054061
-0.809950
0.354040
0.077670
-0.135818
0.604809
0.659645
-0.695302
-0.375964
-0.137714
-0.435061
-1.269590
-0.644460
0.232953
-0.714378
0.244311
-0.550448
-0.055352
-0.881817
-0.005590
-0.879224
-1.086360
0.606930
-0.151665
0.606049
-0.522311
-0.446495
-0.486282
1.392230
0.887073
0.116255
0.212552
0.347134
-0.258081
-0.858805
-0.110369
-0.670579
1.137300
0.850706
0.579072
0.883189
-0.092427
-0.097107
0.317549
1.152910
0.322877
-0.244561
0.466788
1.344230
1.261110
0.596682
0.601831
0.288407
0.747395
0.285342
-0.380971
0.386078
-0.475168
-0.404977
-0.088760
0.391882
1.124170
-0.259815
0.271107
-0.191520
-0.356330
-0.763328
-0.533894
-0.594085
0.366975
-0.268308
-1.255450
-1.132040
-0.224909
0.125997
0.179378
0.183355
0.427179
0.127962
-0.211560
-0.030435
0.888061
0.417100
0.735894
-0.356295
0.289824
-0.405091
-0.649571
-0.237091
-0.152172
0.950308
0.962716
0.075150
-0.210346
-0.486856
-0.140531
0.064450
1.619850
1.922500
1.218780
-0.330397
0.568707
0.183928
1.123250
0.658089
0.509691
-0.622402
-0.874518
0.102161
0.348613
1.202870
1.476600
0.833031
0.923697
0.457439
-0.182830
0.346994
-0.017977
-0.367308
-0.535000
0.412716
0.887682
0.051679
0.134838
-0.248688
0.197162
0.123822
0.359267
0.157576
-0.666150
-0.063434
-0.380446
-0.285955
-0.075857
0.463982
0.306912
0.204915
-0.310089
-0.064055
0.502162
0.782941
1.222630
-0.417807
-0.438978
-0.433821
-0.198645
-0.223208
-0.311865
-0.245963
-0.488994
0.102567
0.296794
0.645245
-0.280792
-0.183818
0.119432
0.003509
0.598290
1.139440
0.104852
1.034970
-0.139343
0.660327
0.291329
-0.684418
-0.112107
-0.275136
0.379911
-0.377611
-0.014431
-0.244378
-0.663165
-0.021939
-0.631144
-0.151838
-0.476311
-0.191422
-0.147080
-0.374130
-0.182053
0.103462
0.166237
-0.392550
-0.476739
-0.166105
1.022440
0.056530
0.665999
-0.012933
1.114000
1.032160
0.020495
0.465357
-0.815590
0.194227
-0.557348
-0.089468
-0.776379
0.229314
0.290673
0.606109
-0.229591
-0.432284
-0.272670
-0.659291
-0.354530
-0.834191
0.383089
0.171320
-0.272319
-1.059930
0.027143
-0.597236
-0.348720
-0.136573
-0.371582
0.663356
0.427435
-0.317233
-0.420549
0.125858
0.368237
0.689440
0.335534
0.561731
-0.098623
-0.825052
0.202768
-0.036095
-0.264182
-0.330111
-0.370292
-0.389707
0.687959
0.418075
0.137725
-0.570362
0.987308
0.187764
0.450880
-0.780260
0.463004
-0.666766
-0.199898
-0.871274
-0.351619
-0.181889
-0.014837
-0.478555
-0.697668
-0.276210
-0.429763
-0.219669
-0.165811
0.275230
-0.465213
-0.174597
-0.079677
-0.187126
-0.181859
0.608808
0.441502
0.251484
0.014335
-0.041988
0.817443
-0.276764
0.664415
0.802056
0.287847
-0.301729
-0.149939
0.333098
-0.389153
0.114285
0.510267
0.738747
0.676856
-0.036287
0.963057
0.117894
-0.063244
-0.802822
0.372056
-0.338926
0.500628
-0.408600
0.365032
-0.586371
0.572898
0.956787
0.640155
-0.235760
-0.250255
0.705939
0.508209
-0.316514
-0.406054
0.095922
-0.530231
0.177539
-0.593627
-0.243628
-0.446734
0.116878
0.659988
-0.197268
0.608509
1.401460
1.075570
1.266370
0.453711
0.871435
0.968403
0.959027
0.283885
-0.110614
0.076540
-0.384446
-0.701161
-0.857355
0.088431
-0.922437
-0.812571
-0.470077
-0.538289
-0.453367
-0.240737
0.713065
0.502674
0.199180
-0.411740
-0.174127
-0.416308
-0.172553
0.141177
0.448323
-0.081783
0.370122
0.604664
-0.433067
-0.750109
-0.497204
-0.559175
-0.290795
0.057023
0.132158
-0.999722
-1.385430
-0.241073
0.525394
-0.151793
0.210958
0.401369
0.400010
-0.609280
-0.777416
-0.471867
-0.301159
0.369780
0.507780
0.970042
1.499090
1.027080
0.711830
1.212430
0.890306
1.540460
1.025960
-0.956072
-0.744742
-0.393535
-0.504761
0.272719
0.332479
0.498594
0.644078
-0.056270
-0.563557
0.687412
0.528778
0.012989
-0.207233
-0.059153
-0.024737
0.462586
0.653068
-0.022135
0.471656
0.342594
-0.337868
0.138607
0.294473
-0.033177
0.207553
-0.050605
-0.660449
1.111690
0.997354
0.619911
0.991128
0.332961
-0.665321
-0.448393
-0.920159
-0.962296
-0.144962
0.045346
0.444676
0.757548
-0.238793
-0.260059
-0.581258
-0.050098
0.844498
1.226290
-0.691621
-0.533849
-0.575553
-0.639570
-0.467478
-0.605014
-0.386817
-0.320307
0.592157
-0.627605
-0.649659
0.222527
0.232470
-0.730986
-0.249366
-0.051935
-0.678637
-1.292980
-0.407999
-0.198221
-0.624841
-0.500300
0.853338
-0.253462
-0.322869
-1.210690
-1.069030
-0.004268
0.506996
0.714602
-0.696698
0.027769
0.341391
-0.427383
-0.104487
-1.002710
0.028881
-0.230587
-0.431788
0.102909
0.451449
0.629739
0.812937
0.610868
0.244058
0.607457
-0.928073
-0.459283
0.061075
0.338025
0.678446
0.924441
-0.335623
0.428660
