# vtk DataFile Version 2.0
Saved using mVTK
ASCII
DATASET POLYDATA
POINTS 42 float
100.000000 0.000000 0.000000
44.720000 -85.070000 -27.640000
44.720000 0.000000 -89.440000
44.720000 85.070000 -27.640000
44.720000 52.570000 72.360000
44.720000 -52.570000 72.360000
-44.720000 -85.070000 27.640000
-44.720000 -52.570000 -72.360000
-44.720000 52.570000 -72.360000
-44.720000 85.070000 27.640000
-44.720000 0.000000 89.440000
-100.000000 0.000000 -0.000000
85.070000 30.900000 42.530000
52.570000 80.900000 26.290000
85.070000 50.000000 -16.250000
85.070000 -30.900000 42.530000
52.570000 0.000000 85.070000
85.070000 -50.000000 -16.250000
52.570000 -80.900000 26.290000
85.070000 0.000000 -52.570000
52.570000 -50.000000 -68.820000
52.570000 50.000000 -68.820000
0.000000 80.900000 -58.780000
0.000000 30.900000 -95.110000
0.000000 100.000000 0.000000
-52.570000 80.900000 -26.290000
-0.000000 80.900000 58.780000
-0.000000 30.900000 95.110000
-52.570000 50.000000 68.820000
-0.000000 -30.900000 95.110000
-0.000000 -80.900000 58.780000
-52.570000 -50.000000 68.820000
0.000000 -100.000000 0.000000
0.000000 -80.900000 -58.780000
-52.570000 -80.900000 -26.290000
0.000000 -30.900000 -95.110000
-52.570000 0.000000 -85.070000
-85.070000 50.000000 16.250000
-85.070000 30.900000 -42.530000
-85.070000 0.000000 52.570000
-85.070000 -50.000000 16.250000
-85.070000 -30.900000 -42.530000
POLYGONS 80 320
3 0 12 14
3 0 12 15
3 0 14 19
3 0 15 17
3 0 17 19
3 1 17 18
3 1 17 20
3 1 18 32
3 1 20 33
3 1 32 33
3 2 19 20
3 2 19 21
3 2 20 35
3 2 21 23
3 2 23 35
3 3 13 14
3 3 13 24
3 3 14 21
3 3 21 22
3 3 22 24
3 4 12 13
3 4 12 16
3 4 13 26
3 4 16 27
3 4 26 27
3 5 15 16
3 5 15 18
3 5 16 29
3 5 18 30
3 5 29 30
3 6 30 31
3 6 30 32
3 6 31 40
3 6 32 34
3 6 34 40
3 7 33 34
3 7 33 35
3 7 34 41
3 7 35 36
3 7 36 41
3 8 22 23
3 8 22 25
3 8 23 36
3 8 25 38
3 8 36 38
3 9 24 25
3 9 24 26
3 9 25 37
3 9 26 28
3 9 28 37
3 10 27 28
3 10 27 29
3 10 28 39
3 10 29 31
3 10 31 39
3 11 37 38
3 11 37 39
3 11 38 41
3 11 39 40
3 11 40 41
3 12 13 14
3 12 15 16
3 13 24 26
3 14 19 21
3 15 17 18
3 16 27 29
3 17 19 20
3 18 30 32
3 20 33 35
3 21 22 23
3 22 24 25
3 23 35 36
3 25 37 38
3 26 27 28
3 28 37 39
3 29 30 31
3 31 39 40
3 32 33 34
3 34 40 41
3 36 38 41
POINT_DATA 42
SCALARS curv float 1
LOOKUP_TABLE default
0.220844
0.292427
0.271743
0.188563
-0.502084
0.165685
-0.370401
0.324659
0.002497
0.050272
-0.188513
-0.932905
0.112559
-0.074215
0.130783
-0.151676
-0.195945
0.329353
0.148557
-0.128213
-0.069957
-0.158984
-0.364564
-0.005294
0.119140
0.063713
-0.427040
0.285156
0.028498
-0.262507
-0.238485
-0.246257
-0.006175
-0.059048
-0.298133
-0.038086
0.088718
-0.079426
0.004829
0.063294
0.203849
0.106342
SCALARS sulc float 1
LOOKUP_TABLE default
0.784931
-0.013782
1.041900
0.648413
-1.015590
0.048605
-0.490678
1.337670
-0.239955
-0.187670
-0.179716
-1.167900
0.790672
-0.358978
0.829307
0.257001
0.069570
0.009565
0.693574
-0.754293
-0.150922
-0.161000
-0.463046
-0.349948
0.785186
-0.129882
-0.324808
0.899953
0.680717
-0.735173
-0.316344
-0.157972
0.239211
-0.113228
-0.799312
0.010152
-0.153139
-0.409852
0.094959
0.039984
0.236249
1.146950
