# vtk DataFile Version 2.0
Saved using mVTK
ASCII
DATASET POLYDATA
POINTS 12 float
0.000000 0.000000 100.000000
27.640000 -85.070000 44.720000
89.440000 0.000000 44.720000
27.640000 85.070000 44.720000
-72.360000 52.570000 44.720000
-72.360000 -52.570000 44.720000
-27.640000 -85.070000 -44.720000
72.360000 -52.570000 -44.720000
72.360000 52.570000 -44.720000
-27.640000 85.070000 -44.720000
-89.440000 0.000000 -44.720000
0.000000 0.000000 -100.000000
POLYGONS 20 80
3 0 1 2
3 0 1 5
3 0 2 3
3 0 3 4
3 0 4 5
3 1 2 7
3 1 5 6
3 1 6 7
3 2 3 8
3 2 7 8
3 3 4 9
3 3 8 9
3 4 5 10
3 4 9 10
3 5 6 10
3 6 7 11
3 6 10 11
3 7 8 11
3 8 9 11
3 9 10 11
POINT_DATA 12
SCALARS curv float 1
LOOKUP_TABLE default
1.820590
1.311400
1.645140
1.718800
2.141020
2.587780
2.003240
0.346102
2.419820
2.581680
2.190600
1.752830
