# vtk DataFile Version 2.0
Saved using mVTK
ASCII
DATASET POLYDATA
POINTS 162 float
100.000000 -0.000000 0.000000
44.720000 27.640000 -85.070000
44.720000 89.440000 -0.000000
44.720000 27.640000 85.070000
44.720000 -72.360000 52.570000
44.720000 -72.360000 -52.570000
-44.720000 -27.640000 -85.070000
-44.720000 72.360000 -52.570000
-44.720000 72.360000 52.570000
-44.720000 -27.640000 85.070000
-44.720000 -89.440000 0.000000
-100.000000 0.000000 -0.000000
85.070000 -42.530000 30.900000
52.570000 -26.290000 80.900000
85.070000 16.250000 50.000000
85.070000 -42.530000 -30.900000
52.570000 -85.070000 0.000000
85.070000 16.250000 -50.000000
52.570000 -26.290000 -80.900000
85.070000 52.570000 -0.000000
52.570000 68.820000 -50.000000
52.570000 68.820000 50.000000
0.000000 58.780000 80.900000
0.000000 95.110000 30.900000
0.000000 0.000000 100.000000
-52.570000 26.290000 80.900000
-0.000000 -58.780000 80.900000
-0.000000 -95.110000 30.900000
-52.570000 -68.820000 50.000000
-0.000000 -95.110000 -30.900000
-0.000000 -58.780000 -80.900000
-52.570000 -68.820000 -50.000000
0.000000 -0.000000 -100.000000
0.000000 58.780000 -80.900000
-52.570000 26.290000 -80.900000
0.000000 95.110000 -30.900000
-52.570000 85.070000 -0.000000
-85.070000 -16.250000 50.000000
-85.070000 42.530000 30.900000
-85.070000 -52.570000 0.000000
-85.070000 -16.250000 -50.000000
-85.070000 42.530000 -30.900000
96.190000 -22.110000 16.060000
89.440000 -13.820000 42.530000
96.190000 8.440000 25.990000
96.190000 -22.110000 -16.060000
89.440000 -44.720000 0.000000
96.190000 8.440000 -25.990000
89.440000 -13.820000 -42.530000
96.190000 27.330000 -0.000000
89.440000 36.180000 -26.290000
89.440000 36.180000 26.290000
23.250000 44.920000 86.270000
27.640000 67.080000 68.820000
50.570000 50.140000 70.200000
23.250000 14.370000 96.190000
0.000000 30.900000 95.110000
50.570000 0.700000 86.270000
27.640000 -13.820000 95.110000
23.250000 -87.050000 43.390000
-0.000000 -80.900000 58.780000
23.250000 -68.160000 69.380000
50.570000 -81.830000 27.330000
27.640000 -94.720000 16.250000
23.250000 -68.160000 -69.380000
-0.000000 -80.900000 -58.780000
23.250000 -87.050000 -43.390000
50.570000 -51.280000 -69.380000
27.640000 -44.720000 -85.070000
23.250000 44.920000 -86.270000
0.000000 30.900000 -95.110000
23.250000 14.370000 -96.190000
50.570000 50.140000 -70.200000
27.640000 67.080000 -68.820000
23.250000 95.930000 16.060000
0.000000 100.000000 -0.000000
23.250000 95.930000 -16.060000
-50.570000 51.280000 69.380000
-72.360000 36.180000 58.780000
-67.460000 59.720000 43.390000
-50.570000 -50.140000 70.200000
-72.360000 -44.720000 52.570000
-67.460000 -22.810000 70.200000
-50.570000 -82.260000 -25.990000
-72.360000 -63.820000 -26.290000
-67.460000 -73.820000 0.000000
-50.570000 -0.700000 -86.270000
-72.360000 5.280000 -68.820000
-67.460000 -22.810000 -70.200000
-50.570000 81.830000 -27.330000
-72.360000 67.080000 -16.250000
-67.460000 59.720000 -43.390000
67.460000 -59.720000 43.390000
50.570000 -51.280000 69.380000
72.360000 -36.180000 58.780000
72.360000 -5.280000 68.820000
67.460000 22.810000 70.200000
67.460000 -59.720000 -43.390000
50.570000 -81.830000 -27.330000
72.360000 -67.080000 -16.250000
72.360000 -67.080000 16.250000
67.460000 22.810000 -70.200000
50.570000 0.700000 -86.270000
72.360000 -5.280000 -68.820000
72.360000 -36.180000 -58.780000
67.460000 73.820000 -0.000000
50.570000 82.260000 -25.990000
72.360000 63.820000 -26.290000
72.360000 44.720000 -52.570000
72.360000 44.720000 52.570000
72.360000 63.820000 26.290000
50.570000 82.260000 25.990000
-23.250000 68.160000 69.380000
-23.250000 87.050000 43.390000
0.000000 80.900000 58.780000
27.640000 86.180000 42.530000
-23.250000 -14.370000 96.190000
-50.570000 -0.700000 86.270000
-27.640000 13.820000 95.110000
-27.640000 44.720000 85.070000
27.640000 -44.720000 85.070000
-0.000000 -30.900000 95.110000
-23.250000 -44.920000 86.270000
-23.250000 -95.930000 16.060000
-50.570000 -82.260000 25.990000
-27.640000 -86.180000 42.530000
-27.640000 -67.080000 68.820000
27.640000 -94.720000 -16.250000
-0.000000 -100.000000 0.000000
-23.250000 -95.930000 -16.060000
-23.250000 -44.920000 -86.270000
-50.570000 -50.140000 -70.200000
-27.640000 -67.080000 -68.820000
-27.640000 -86.180000 -42.530000
27.640000 -13.820000 -95.110000
-0.000000 -30.900000 -95.110000
-23.250000 -14.370000 -96.190000
-23.250000 68.160000 -69.380000
-50.570000 51.280000 -69.380000
-27.640000 44.720000 -85.070000
-27.640000 13.820000 -95.110000
27.640000 86.180000 -42.530000
0.000000 80.900000 -58.780000
-23.250000 87.050000 -43.390000
-50.570000 81.830000 27.330000
-27.640000 94.720000 16.250000
-27.640000 94.720000 -16.250000
-72.360000 5.280000 68.820000
-89.440000 13.820000 42.530000
-96.190000 -8.440000 25.990000
-96.190000 22.110000 16.060000
-72.360000 -63.820000 26.290000
-89.440000 -36.180000 26.290000
-96.190000 -27.330000 0.000000
-72.360000 -44.720000 -52.570000
-89.440000 -36.180000 -26.290000
-96.190000 -8.440000 -25.990000
-72.360000 36.180000 -58.780000
-89.440000 13.820000 -42.530000
-96.190000 22.110000 -16.060000
-72.360000 67.080000 16.250000
-89.440000 44.720000 -0.000000
POLYGONS 320 1280
3 0 42 44
3 0 42 45
3 0 44 49
3 0 45 47
3 0 47 49
3 1 69 71
3 1 69 72
3 1 71 102
3 1 72 101
3 1 101 102
3 2 74 76
3 2 74 111
3 2 76 106
3 2 105 106
3 2 105 111
3 3 52 54
3 3 52 55
3 3 54 96
3 3 55 57
3 3 57 96
3 4 59 61
3 4 59 62
3 4 61 93
3 4 62 92
3 4 92 93
3 5 64 66
3 5 64 67
3 5 66 98
3 5 67 97
3 5 97 98
3 6 86 88
3 6 86 136
3 6 88 131
3 6 130 131
3 6 130 136
3 7 89 91
3 7 89 143
3 7 91 138
3 7 137 138
3 7 137 143
3 8 77 79
3 8 77 112
3 8 79 144
3 8 112 113
3 8 113 144
3 9 80 82
3 9 80 122
3 9 82 117
3 9 116 117
3 9 116 122
3 10 83 85
3 10 83 129
3 10 85 124
3 10 123 124
3 10 123 129
3 11 149 150
3 11 149 153
3 11 150 159
3 11 153 156
3 11 156 159
3 12 42 43
3 12 42 46
3 12 43 94
3 12 46 100
3 12 92 94
3 12 92 100
3 13 57 58
3 13 57 95
3 13 58 120
3 13 93 94
3 13 93 120
3 13 94 95
3 14 43 44
3 14 43 95
3 14 44 51
3 14 51 109
3 14 95 96
3 14 96 109
3 15 45 46
3 15 45 48
3 15 46 99
3 15 48 104
3 15 97 99
3 15 97 104
3 16 62 63
3 16 62 100
3 16 63 127
3 16 98 99
3 16 98 127
3 16 99 100
3 17 47 48
3 17 47 50
3 17 48 103
3 17 50 108
3 17 101 103
3 17 101 108
3 18 67 68
3 18 67 104
3 18 68 134
3 18 102 103
3 18 102 134
3 18 103 104
3 19 49 50
3 19 49 51
3 19 50 107
3 19 51 110
3 19 105 107
3 19 105 110
3 20 72 73
3 20 72 108
3 20 73 141
3 20 106 107
3 20 106 141
3 20 107 108
3 21 53 54
3 21 53 115
3 21 54 109
3 21 109 110
3 21 110 111
3 21 111 115
3 22 52 53
3 22 52 56
3 22 53 114
3 22 56 119
3 22 112 114
3 22 112 119
3 23 74 75
3 23 74 115
3 23 75 145
3 23 113 114
3 23 113 145
3 23 114 115
3 24 55 56
3 24 55 58
3 24 56 118
3 24 58 121
3 24 116 118
3 24 116 121
3 25 77 78
3 25 77 119
3 25 78 147
3 25 117 118
3 25 117 147
3 25 118 119
3 26 60 61
3 26 60 126
3 26 61 120
3 26 120 121
3 26 121 122
3 26 122 126
3 27 59 60
3 27 59 63
3 27 60 125
3 27 63 128
3 27 123 125
3 27 123 128
3 28 80 81
3 28 80 126
3 28 81 151
3 28 124 125
3 28 124 151
3 28 125 126
3 29 65 66
3 29 65 133
3 29 66 127
3 29 127 128
3 29 128 129
3 29 129 133
3 30 64 65
3 30 64 68
3 30 65 132
3 30 68 135
3 30 130 132
3 30 130 135
3 31 83 84
3 31 83 133
3 31 84 154
3 31 131 132
3 31 131 154
3 31 132 133
3 32 70 71
3 32 70 140
3 32 71 134
3 32 134 135
3 32 135 136
3 32 136 140
3 33 69 70
3 33 69 73
3 33 70 139
3 33 73 142
3 33 137 139
3 33 137 142
3 34 86 87
3 34 86 140
3 34 87 157
3 34 138 139
3 34 138 157
3 34 139 140
3 35 75 76
3 35 75 146
3 35 76 141
3 35 141 142
3 35 142 143
3 35 143 146
3 36 89 90
3 36 89 146
3 36 90 160
3 36 144 145
3 36 144 160
3 36 145 146
3 37 81 82
3 37 81 152
3 37 82 147
3 37 147 148
3 37 148 149
3 37 149 152
3 38 78 79
3 38 78 148
3 38 79 160
3 38 148 150
3 38 150 161
3 38 160 161
3 39 84 85
3 39 84 155
3 39 85 151
3 39 151 152
3 39 152 153
3 39 153 155
3 40 87 88
3 40 87 158
3 40 88 154
3 40 154 155
3 40 155 156
3 40 156 158
3 41 90 91
3 41 90 161
3 41 91 157
3 41 157 158
3 41 158 159
3 41 159 161
3 42 43 44
3 42 45 46
3 43 94 95
3 44 49 51
3 45 47 48
3 46 99 100
3 47 49 50
3 48 103 104
3 50 107 108
3 51 109 110
3 52 53 54
3 52 55 56
3 53 114 115
3 54 96 109
3 55 57 58
3 56 118 119
3 57 95 96
3 58 120 121
3 59 60 61
3 59 62 63
3 60 125 126
3 61 93 120
3 62 92 100
3 63 127 128
3 64 65 66
3 64 67 68
3 65 132 133
3 66 98 127
3 67 97 104
3 68 134 135
3 69 70 71
3 69 72 73
3 70 139 140
3 71 102 134
3 72 101 108
3 73 141 142
3 74 75 76
3 74 111 115
3 75 145 146
3 76 106 141
3 77 78 79
3 77 112 119
3 78 147 148
3 79 144 160
3 80 81 82
3 80 122 126
3 81 151 152
3 82 117 147
3 83 84 85
3 83 129 133
3 84 154 155
3 85 124 151
3 86 87 88
3 86 136 140
3 87 157 158
3 88 131 154
3 89 90 91
3 89 143 146
3 90 160 161
3 91 138 157
3 92 93 94
3 97 98 99
3 101 102 103
3 105 106 107
3 105 110 111
3 112 113 114
3 113 144 145
3 116 117 118
3 116 121 122
3 123 124 125
3 123 128 129
3 130 131 132
3 130 135 136
3 137 138 139
3 137 142 143
3 148 149 150
3 149 152 153
3 150 159 161
3 153 155 156
3 156 158 159
POINT_DATA 162
SCALARS curv float 1
LOOKUP_TABLE default
0.220844
0.292427
0.271743
0.188563
-0.502084
0.165685
-0.370401
0.324659
0.002497
0.050272
-0.188513
-0.932905
0.112559
-0.074215
0.130783
-0.151676
-0.195945
0.329353
0.148557
-0.128213
-0.069957
-0.158984
-0.364564
-0.005294
0.119140
0.063713
-0.427040
0.285156
0.028498
-0.262507
-0.238485
-0.246257
-0.006175
-0.059048
-0.298133
-0.038086
0.088718
-0.079426
0.004829
0.063294
0.203849
0.106342
0.179179
-0.131623
-0.250586
-0.137654
0.062829
-0.367278
0.118818
0.237406
-0.516729
0.076803
-0.167761
-0.220661
-0.017671
0.320195
-0.773656
0.145854
0.197240
0.122563
0.079934
0.269421
-0.877862
-0.369374
0.043704
0.126428
0.388946
0.146996
0.234106
-0.486472
-0.108233
-0.047936
0.186707
0.212412
-0.000584
-0.002115
-0.137380
-0.094369
-0.481277
0.005535
0.016485
0.049995
0.061564
0.190443
-0.014130
0.012358
-0.396429
-0.020506
-0.448582
-0.113070
0.057697
-0.517077
-0.026732
-0.273407
-0.446224
0.069357
0.224969
0.146894
-0.010118
0.045792
-0.053971
-0.167329
0.217969
0.091468
0.188706
-0.239121
0.048941
0.061127
0.026669
-0.450869
-0.048253
-0.007201
0.366806
-0.000902
-0.025252
0.279801
0.202623
0.054357
-0.237334
-0.522315
0.167953
-0.586620
0.138094
0.131340
-0.351489
0.020226
0.217280
-0.014460
0.172471
-0.274297
-0.312773
-0.187138
0.131717
0.246343
0.179316
-0.661973
-0.515915
-0.204762
0.166128
-0.131588
-0.222619
0.033197
0.120640
0.105320
0.017780
0.027101
0.205532
-0.172513
0.104380
-0.191367
0.055219
-0.068261
-0.130852
0.233135
0.118182
-0.075431
-0.149036
0.190573
-0.116673
0.177560
-0.163107
-0.421798
SCALARS sulc float 1
LOOKUP_TABLE default
0.784931
-0.013782
1.041900
0.648413
-1.015590
0.048605
-0.490678
1.337670
-0.239955
-0.187670
-0.179716
-1.167900
0.790672
-0.358978
0.829307
0.257001
0.069570
0.009565
0.693574
-0.754293
-0.150922
-0.161000
-0.463046
-0.349948
0.785186
-0.129882
-0.324808
0.899953
0.680717
-0.735173
-0.316344
-0.157972
0.239211
-0.113228
-0.799312
0.010152
-0.153139
-0.409852
0.094959
0.039984
0.236249
1.146950
1.058710
-0.317697
-0.593018
-0.211469
0.030051
-0.591852
-0.028925
0.390634
-1.220550
-0.295500
-0.850462
-0.179570
-0.474245
0.874813
-0.873407
0.720503
-0.259664
-0.042235
0.113940
0.471194
-0.967372
-0.618848
-0.072697
0.503768
-0.147006
0.503361
-0.272313
-0.562138
-0.862731
-0.342150
-0.531309
-0.086352
-0.103539
-0.242049
-0.160215
-0.537949
-0.581383
-0.620247
1.105610
0.217854
0.186453
0.807402
-0.096534
0.219420
-0.827385
0.247305
-0.901391
0.068319
0.446939
0.163629
0.404006
0.178813
-0.531119
0.086698
0.660312
0.912807
-0.015436
0.474736
0.006012
-0.712684
0.227786
0.243703
1.184570
-0.143383
0.732209
0.486549
-0.746704
-0.888227
-0.508139
0.202573
0.690497
-0.343269
0.284697
0.762440
0.586142
-0.161103
-0.323847
-1.256220
0.780840
-0.625623
0.227631
1.355520
0.266541
1.376290
0.873293
-0.402108
1.145290
-0.501252
0.138208
0.228070
0.842913
0.448729
0.495683
-0.756132
-0.708874
0.222311
-0.093090
-0.281410
-0.684712
0.145188
0.523082
0.491520
-0.725893
-0.496765
-0.185612
-0.433489
0.009014
-1.068440
-0.122590
-0.175232
-0.743457
-0.340073
0.225850
-0.184549
-0.045714
0.178164
0.188248
0.950454
-0.089463
-0.122302
